# Force and moment coefficients
# dragDir               : (1.0000000000000000e+00 0.0000000000000000e+00 0.0000000000000000e+00)
# sideDir               : (0.0000000000000000e+00 0.0000000000000000e+00 -1.0000000000000000e+00)
# liftDir               : (0.0000000000000000e+00 1.0000000000000000e+00 0.0000000000000000e+00)
# rollAxis              : (1.0000000000000000e+00 0.0000000000000000e+00 0.0000000000000000e+00)
# pitchAxis             : (0.0000000000000000e+00 0.0000000000000000e+00 -1.0000000000000000e+00)
# yawAxis               : (0.0000000000000000e+00 1.0000000000000000e+00 0.0000000000000000e+00)
# magUInf               : 2.3659999999999999e+02
# lRef                  : 1.0330000000000000e-01
# Aref                  : 6.7799999999999996e-03
# CofR                  : (3.5000000000000003e-02 0.0000000000000000e+00 0.0000000000000000e+00)
#
# Time                  	Cd                      	Cd(f)                   	Cd(r)                   	Cl                      	Cl(f)                   	Cl(r)                   	CmPitch                 	CmRoll                  	CmYaw                   	Cs                      	Cs(f)                   	Cs(r)                   
1                       	1.9639159687035243e-01	1.0174572169509204e-01	9.4645875175260394e-02	-3.4483832596330843e-03	-3.2668106382540219e-03	-1.8157262137906226e-04	-1.5426190084374797e-03	3.5499232599158232e-03	2.4998312713360577e-02	1.8475557933746373e-01	1.1737610238209244e-01	6.7379476955371290e-02
2                       	2.5928723647238683e-01	1.3317971247148375e-01	1.2610752400090308e-01	-3.8627437004670677e-03	-3.5763363937181898e-03	-2.8640730674887763e-04	-1.6449645434846562e-03	3.5360942352903372e-03	3.8324382647952369e-02	1.8618748148320552e-01	1.3141812338955514e-01	5.4769358093650390e-02
3                       	2.1840414130001498e-01	1.1212893710694768e-01	1.0627520419306730e-01	-2.0224253472483945e-03	-2.0875198802435099e-03	6.5094532995115515e-05	-1.0763072066193127e-03	2.9268664569401959e-03	2.8576490326782167e-02	1.8649141127486141e-01	1.2182219596421286e-01	6.4669215310648537e-02
4                       	1.1647815767022045e-01	6.0436086453046801e-02	5.6042071217173646e-02	5.7680494002663410e-04	-7.4556560962769626e-05	6.5136150098940376e-04	-3.6295903097608665e-04	2.1970076179365808e-03	5.2445530805360829e-03	1.8596411204219765e-01	9.8226609101634901e-02	8.7737502940562748e-02
5                       	7.4015023647333311e-03	5.4724389446050015e-03	1.9290634201283297e-03	2.4401190820220516e-03	1.3015501056098300e-03	1.1385689764122214e-03	8.1490564598804240e-05	1.7716877622383366e-03	-1.9327594694006574e-02	1.8472074668129534e-01	7.3032778646641094e-02	1.1168796803465425e-01
6                       	-6.3038401171314817e-02	-2.9712586240594561e-02	-3.3325814930720260e-02	2.7616127933421494e-03	1.4390012293311653e-03	1.3226115640109842e-03	5.8194832660090555e-05	1.8066143450628511e-03	-3.4416386416411801e-02	1.8184282033683097e-01	5.6505023752003683e-02	1.2533779658482730e-01
7                       	-7.8301972677870202e-02	-3.6986521007519889e-02	-4.1315451670350306e-02	1.7877677927485738e-03	5.8476916861436342e-04	1.2029986241342103e-03	-3.0911472775992343e-04	2.1644653314152129e-03	-3.6554973820549931e-02	1.7822702452071076e-01	5.2558538439805458e-02	1.2566848608090531e-01
8                       	-4.9975431863354611e-02	-2.2402047392869006e-02	-2.7573384470485608e-02	2.9157188138821205e-04	-4.8511589717850135e-04	7.7668777856671346e-04	-6.3090183787260735e-04	2.5856685388083011e-03	-2.8773978504654921e-02	1.7497006516825744e-01	5.8711054079473801e-02	1.1625901108878364e-01
9                       	-7.6940917477064628e-04	2.4718898687820959e-03	-3.2412990435527426e-03	-9.7774962898357050e-04	-1.2009585303060072e-03	2.2320890132243660e-04	-7.1208371581422188e-04	2.8565944561674194e-03	-1.6519108674038208e-02	1.7257779314962260e-01	6.9769787900773081e-02	1.0280800524884950e-01
10                      	4.6190001256410686e-02	2.5919286029639488e-02	2.0270715226771201e-02	-1.3772328442535626e-03	-1.2352659084200594e-03	-1.4196693583350313e-04	-5.4664948629327818e-04	2.8242854014341452e-03	-5.2045500426982118e-03	1.7135592038249198e-01	8.0473410148547767e-02	9.0882510233944211e-02
11                      	7.2415702961078937e-02	3.8770777512635766e-02	3.3644925448443178e-02	-9.1632017810591455e-04	-7.0643225806275975e-04	-2.0988792004315477e-04	-2.4827216900980253e-04	2.5629260320962932e-03	5.7360962089746679e-04	1.7204302616575301e-01	8.6595122703773966e-02	8.5447903461979044e-02
12                      	7.2617344493428923e-02	3.8561186697887745e-02	3.4056157795541178e-02	-2.4495539916529523e-05	1.9292039859982195e-06	-2.6424743902527756e-05	1.4176973944262988e-05	2.2525144511732825e-03	-3.7578778485203735e-04	1.7460994992459411e-01	8.6929187177445008e-02	8.7680762747149088e-02
13                      	5.4354857286481609e-02	2.9271119847977749e-02	2.5083737438503857e-02	6.6054036538686436e-04	4.1245803637720983e-04	2.4808232900965454e-04	8.2187853683777644e-05	2.0936912047369487e-03	-5.7723432128970152e-03	1.7770934846392905e-01	8.3082331019067507e-02	9.4627017444861530e-02
14                      	3.0074548773589165e-02	1.7205884012413474e-02	1.2868664761175687e-02	7.7969047964650403e-04	3.3474987184380360e-04	4.4494060780270032e-04	-5.5095367979448386e-05	2.1686096256188945e-03	-1.2309143668714204e-02	1.8022754677980521e-01	7.7804629721188401e-02	1.0242291705861681e-01
15                      	1.0390306712947130e-02	7.6259559869847476e-03	2.7643507259623827e-03	3.0569313661965445e-04	-1.4448056730228753e-04	4.5017370392194195e-04	-2.9732713561211475e-04	2.4308026305111829e-03	-1.7355969141791806e-02	1.8160069971457640e-01	7.3444380715496388e-02	1.0815631899908001e-01
16                      	1.8644005734573948e-03	3.6890174869571983e-03	-1.8246169134998030e-03	-4.9775200202774816e-04	-7.3456456419629726e-04	2.3681256216854913e-04	-4.8568856318242318e-04	2.7568172002285008e-03	-1.9232167243404052e-02	1.8144212812657468e-01	7.1488896819883282e-02	1.0995323130669139e-01
17                      	4.7965233793488210e-03	5.3741472655647604e-03	-5.7762388621594024e-04	-1.1690482024721536e-03	-1.1022229270567171e-03	-6.6825275415436508e-05	-5.1769882582064031e-04	2.9758855758903508e-03	-1.8004320546237417e-02	1.8004573455698067e-01	7.2018546732252900e-02	1.0802718782472776e-01
18                      	1.4544810017664779e-02	1.0283173769388356e-02	4.2616362482764221e-03	-1.4364796732433530e-03	-1.0960523371158044e-03	-3.4042733612754867e-04	-3.7781250049412785e-04	3.0107687605559672e-03	-1.5042230013760600e-02	1.7813343685077163e-01	7.4024488411625219e-02	1.0410894843914641e-01
19                      	2.5557719265811053e-02	1.5641786834028823e-02	9.9159324317822338e-03	-1.2054570470280473e-03	-7.4462405844995608e-04	-4.6083298857809129e-04	-1.4189553493593234e-04	2.8629272011232946e-03	-1.1896039149549882e-02	1.7641963499046606e-01	7.6313778345683148e-02	1.0010585664478291e-01
20                      	3.3074178558246639e-02	1.9170679429521633e-02	1.3903499128725006e-02	-6.8575099495100564e-04	-2.7311416905116377e-04	-4.1263682589984198e-04	6.9761328424339101e-05	2.6335901503983122e-03	-9.8605237300072642e-03	1.7547322773721191e-01	7.7876090138598697e-02	9.7597137598613229e-02
21                      	3.4890641908362656e-02	1.9885458200882694e-02	1.5005183707479962e-02	-1.5835698904928118e-04	8.5919468437912539e-05	-2.4427645748719372e-04	1.6509796296255313e-04	2.4401372467013653e-03	-9.5192914279241085e-03	1.7555757341914843e-01	7.8259495281650104e-02	9.7298078137498314e-02
22                      	3.1748961560627356e-02	1.8211954405827881e-02	1.3537007154799474e-02	2.0906017939896276e-04	2.3429151443822200e-04	-2.5231335039259211e-05	1.2976142473874059e-04	2.3374736255142030e-03	-1.0585815113754428e-02	1.7641231505813260e-01	7.7620342415311863e-02	9.8791972642820733e-02
23                      	2.6418309158255757e-02	1.5592477190094069e-02	1.0825831968161687e-02	1.9848787531870246e-04	6.5200693055700272e-05	1.3328718226300222e-04	-3.4043244603650972e-05	2.3833226109661919e-03	-1.2217009290186862e-02	1.7751157110251373e-01	7.6538776261070002e-02	1.0097279484144371e-01
24                      	2.1563414521408995e-02	1.3307465460386704e-02	8.2559490610222934e-03	-9.8844148569461181e-05	-2.8973152343685603e-04	1.9088737486739482e-04	-2.4030944915212540e-04	2.5257581996822056e-03	-1.3639912225839395e-02	1.7839084901757124e-01	7.5555512282946227e-02	1.0283533673462501e-01
25                      	1.9018074679201597e-02	1.2199153400766995e-02	6.8189212784346021e-03	-5.1626331799591756e-04	-6.5409067343499350e-04	1.3782735543907599e-04	-3.9595901443703477e-04	2.6901160611661969e-03	-1.4347766711167208e-02	1.7880301354850855e-01	7.5053740063087071e-02	1.0374927348542148e-01
26                      	1.9170163185733245e-02	1.2383781798980266e-02	6.7863813867529797e-03	-8.3830055731208965e-04	-8.6302537299260350e-04	2.4724815680513804e-05	-4.4387509433655868e-04	2.7987002061136425e-03	-1.4251225176752577e-02	1.7870591042649062e-01	7.5101730036492717e-02	1.0360418038999789e-01
27                      	2.1279636575457214e-02	1.3454689215578790e-02	7.8249473598784244e-03	-9.5700845279173572e-04	-8.6729726233274553e-04	-8.9711190458990236e-05	-3.8879303593687762e-04	2.8148709278501827e-03	-1.3593562823652103e-02	1.7827275237151954e-01	7.5542813362107664e-02	1.0272993900941188e-01
28                      	2.3891787996742034e-02	1.4699713544930066e-02	9.1920744518119678e-03	-8.8566563200778551e-04	-6.9793495389123042e-04	-1.8773067811655509e-04	-2.5510213788733767e-04	2.7538195465590483e-03	-1.2808996540621783e-02	1.7775675046239989e-01	7.6069378690578171e-02	1.0168737177182172e-01
29                      	2.5846880926664213e-02	1.5579686585879890e-02	1.0267194340784323e-02	-6.8548345364304074e-04	-4.4140232605627944e-04	-2.4408112758676127e-04	-9.8660599234759070e-05	2.6562461225477841e-03	-1.2235891379454897e-02	1.7737241139768983e-01	7.6450314319390006e-02	1.0092209707829981e-01
30                      	2.6430911716751181e-02	1.5787480738937314e-02	1.0643430977813867e-02	-4.7185231209908983e-04	-2.1329922633757999e-04	-2.5855308576150983e-04	2.2626929711964922e-05	2.5720248805617225e-03	-1.2077400767068671e-02	1.7723515286410074e-01	7.6540175664981697e-02	1.0069497719911905e-01
31                      	2.5791372919475558e-02	1.5422540200260775e-02	1.0368832719214779e-02	-3.1281535923204838e-04	-7.7872182565780652e-05	-2.3494317666626773e-04	7.8535497050243540e-05	2.5268537405229979e-03	-1.2279952364417835e-02	1.7732149137344941e-01	7.6380793322306864e-02	1.0094069805114253e-01
32                      	2.4453304063297661e-02	1.4770705613012875e-02	9.6825984502847857e-03	-2.9483548593467853e-04	-9.3764385639160178e-05	-2.0107110029551832e-04	5.3653357328179086e-05	2.5440535813640460e-03	-1.2679444551364006e-02	1.7752059227213457e-01	7.6080851584703277e-02	1.0143974068743131e-01
33                      	2.3189319971647450e-02	1.4208469629845056e-02	8.9808503418023940e-03	-4.1762364965451204e-04	-2.4424358989968791e-04	-1.7338005975482413e-04	-3.5431765072431901e-05	2.6138096440213310e-03	-1.3047711269518633e-02	1.7771095978933388e-01	7.5807768625148306e-02	1.0190319116418557e-01
34                      	2.2452251952813179e-02	1.3920181919749929e-02	8.5320700330632493e-03	-5.9035654346862047e-04	-4.3956924435444315e-04	-1.5078729911417732e-04	-1.4439097262013292e-04	2.6940559433433387e-03	-1.3257117940056524e-02	1.7781944534392785e-01	7.5652604731907408e-02	1.0216684061202046e-01
35                      	2.2455044548246674e-02	1.3975990502975499e-02	8.4790540452711755e-03	-7.2591844677730502e-04	-5.9574973829600063e-04	-1.3016870848130442e-04	-2.3279051490734812e-04	2.7484682288521608e-03	-1.3251360430905624e-02	1.7782523666888836e-01	7.5661257903538545e-02	1.0216397876534980e-01
36                      	2.2947784910483417e-02	1.4238897868258819e-02	8.7088870422245990e-03	-7.8938998770844491e-04	-6.7542426344681383e-04	-1.1396572426163108e-04	-2.8072926959259138e-04	2.7650054130171093e-03	-1.3108230869060948e-02	1.7776104511569579e-01	7.5772291688786936e-02	1.0198875342690886e-01
37                      	2.3622954592729291e-02	1.4541585984372454e-02	9.0813686083568400e-03	-7.2350106885839412e-04	-6.4690010828759173e-04	-7.6600960570802362e-05	-2.8514957385839467e-04	2.7301086880078076e-03	-1.2919106124223735e-02	1.7768179629066488e-01	7.5921792021108700e-02	1.0176000426955618e-01
38                      	2.4126069601986724e-02	1.4724538875814982e-02	9.4015307261717425e-03	-5.6736492622453901e-04	-5.3551078747116022e-04	-3.1854138753378711e-05	-2.5182832435889077e-04	2.6615040748216197e-03	-1.2784761188884200e-02	1.7763126870757495e-01	7.6030873164903270e-02	1.0160039554267168e-01
39                      	2.4320610098381799e-02	1.4750703040856142e-02	9.5699070575256569e-03	-3.9730709082769905e-04	-3.9744910695776374e-04	1.4201613006466370e-07	-1.9879556154391419e-04	2.5903979916652416e-03	-1.2741033413611626e-02	1.7762483491645725e-01	7.6071384044616996e-02	1.0155345087184026e-01
40                      	2.4138273476480156e-02	1.4611629608021771e-02	9.5266438684583864e-03	-2.7685209239307812e-04	-2.8363301364171871e-04	6.7809212486405913e-06	-1.4520696744517965e-04	2.5424928697816923e-03	-1.2802020305835264e-02	1.7764899722816763e-01	7.6022478308248542e-02	1.0162651891991907e-01
41                      	2.3774782725465182e-02	1.4422346160415558e-02	9.3524365650496238e-03	-2.4909310605193181e-04	-2.3270526613162031e-04	-1.6387839920311501e-05	-1.0815871310565440e-04	2.5349547976829677e-03	-1.2908946242840459e-02	1.7767588520057642e-01	7.5928996357447751e-02	1.0174688884312867e-01
42                      	2.3440166907697811e-02	1.4290452551590626e-02	9.1497143561071869e-03	-3.2939372421247876e-04	-2.6225834182098002e-04	-6.7135382391498742e-05	-9.7561479714740638e-05	2.5703690977417187e-03	-1.3002983092986500e-02	1.7768484343170846e-01	7.5839438622867739e-02	1.0184540480884073e-01
43                      	2.3225035738263653e-02	1.4241491710848372e-02	8.9835440274152797e-03	-4.7416759665155206e-04	-3.4784583623635886e-04	-1.2632176041519325e-04	-1.1076203791058279e-04	2.6289738417165469e-03	-1.3059289380017304e-02	1.7766739937680437e-01	7.5774410308384874e-02	1.0189298906841948e-01
44                      	2.3220251164724377e-02	1.4294737797215538e-02	8.9255133675088388e-03	-6.1827524757462090e-04	-4.4772345653660282e-04	-1.7055179103801809e-04	-1.3858583274929236e-04	2.6846122148533502e-03	-1.3057280839429749e-02	1.7763208399892486e-01	7.5758761160032689e-02	1.0187332283889218e-01
45                      	2.3345795095749772e-02	1.4391201776765217e-02	8.9545933189845578e-03	-7.1319999476591751e-04	-5.2556625258747219e-04	-1.8763374217844534e-04	-1.6896625520451344e-04	2.7183042288903285e-03	-1.3021273899973458e-02	1.7759354994880130e-01	7.5775501074427196e-02	1.0181804887437412e-01
46                      	2.3550210788877486e-02	1.4494372287962088e-02	9.0558385009153995e-03	-7.2391603635801318e-04	-5.5478596905895994e-04	-1.6913006729905327e-04	-1.9282795087995332e-04	2.7192668935233440e-03	-1.2967997471872075e-02	1.7757158493056346e-01	7.5817794993409654e-02	1.0175378993715381e-01
47                      	2.3679359683052768e-02	1.4529357878200987e-02	9.1500018048517803e-03	-6.5109923322039182e-04	-5.2934985107140121e-04	-1.2174938214899061e-04	-2.0380023446120533e-04	2.6896780366746022e-03	-1.2938656769530339e-02	1.7757338869821029e-01	7.5848037579574812e-02	1.0172535111863550e-01
48                      	2.3724563375288086e-02	1.4506425691024038e-02	9.2181376842640494e-03	-5.3031856270726696e-04	-4.6682591012874963e-04	-6.3492652578517409e-05	-2.0166662877511610e-04	2.6441440033799944e-03	-1.2934749860476265e-02	1.7759467050885991e-01	7.5862585393953699e-02	1.0173208511490622e-01
49                      	2.3666341364231770e-02	1.4435588482669386e-02	9.2307528815623874e-03	-4.1486757212344115e-04	-3.9628952647135466e-04	-1.8578045652086519e-05	-1.8885574040963406e-04	2.6024178005534990e-03	-1.2958660322861667e-02	1.7761875962109466e-01	7.5850719487685667e-02	1.0176804013340900e-01
50                      	2.3578001537599941e-02	1.4372420658077107e-02	9.2055808795228362e-03	-3.5716569910412062e-04	-3.5085293645697427e-04	-6.3127626471463254e-06	-1.7227008690491401e-04	2.5834198892771346e-03	-1.2988322967132876e-02	1.7763075510650450e-01	7.5827054586119366e-02	1.0180370052038513e-01
51                      	2.3483981296057461e-02	1.4335879469268613e-02	9.1481018267888480e-03	-3.8045164749612900e-04	-3.4753158444983162e-04	-3.2920063046297407e-05	-1.5730576070176709e-04	2.5938888212398829e-03	-1.3014952703002323e-02	1.7762091411919298e-01	7.5795504356594171e-02	1.0182540976259882e-01
52                      	2.3446792544441625e-02	1.4348568968280181e-02	9.0982235761614474e-03	-4.6576792553796361e-04	-3.8058733082216572e-04	-8.5180594715797897e-05	-1.4770336805318391e-04	2.6251726960593667e-03	-1.3023192744410574e-02	1.7759116790927526e-01	7.5772391210227052e-02	1.0181877669904821e-01
53                      	2.3468018416478987e-02	1.4396794739925518e-02	9.0712236765534693e-03	-5.7417513692658141e-04	-4.3164805652403651e-04	-1.4252708040254490e-04	-1.4456048806074580e-04	2.6627855316860242e-03	-1.3014211729319710e-02	1.7754918173771816e-01	7.5760379139539369e-02	1.0178880259817880e-01
54                      	2.3539097345876014e-02	1.4460821712321173e-02	9.0782756335548408e-03	-6.6101527964567124e-04	-4.7753284582237408e-04	-1.8348243382329719e-04	-1.4702520599953848e-04	2.6912730393831657e-03	-1.2990994855619248e-02	1.7750788053431113e-01	7.5762945411536317e-02	1.0174493512277481e-01
55                      	2.3617291012339010e-02	1.4510136913181874e-02	9.1071540991571366e-03	-6.9822079890068155e-04	-5.0151470281727855e-04	-1.9670609608340300e-04	-1.5240430336693774e-04	2.7014914070123690e-03	-1.2967172253368110e-02	1.7747803708396470e-01	7.5771846288614247e-02	1.0170619079535047e-01
56                      	2.3681002176253359e-02	1.4533962956739017e-02	9.1470392195143399e-03	-6.8267881823303453e-04	-4.9899045532204921e-04	-1.8368836291098533e-04	-1.5765104620553194e-04	2.6934618686123386e-03	-1.2950092761286561e-02	1.7746658260736703e-01	7.5783198542396957e-02	1.0168338406497007e-01
57                      	2.3701387951194898e-02	1.4525436037923481e-02	9.1759519132714167e-03	-6.3318615064543297e-04	-4.7623003747265379e-04	-1.5695611317277910e-04	-1.5963696214993736e-04	2.6747420623260318e-03	-1.2946357492351925e-02	1.7746872522031218e-01	7.5788005117804161e-02	1.0168072010250803e-01
58                      	2.3698898384639851e-02	1.4506634727672862e-02	9.1922636569669886e-03	-5.8220400023040251e-04	-4.4805536326225566e-04	-1.3414863696814680e-04	-1.5695336314705446e-04	2.6571855353529363e-03	-1.2949100925666408e-02	1.7747634578287913e-01	7.5789071965773155e-02	1.0168727381710599e-01
59                      	2.3679021543355147e-02	1.4491086238654900e-02	9.1879353047002489e-03	-5.6089671690561513e-04	-4.3029797330657000e-04	-1.3059874359904518e-04	-1.4984961485376244e-04	2.6515754669773255e-03	-1.2955373239109863e-02	1.7747863213550302e-01	7.5783942828641648e-02	1.0169468930686137e-01
60                      	2.3670319852856343e-02	1.4496300237734360e-02	9.1740196151219866e-03	-5.8136816252715240e-04	-4.3128863755800974e-04	-1.5007952496914260e-04	-1.4060455629443354e-04	2.6611403113061859e-03	-1.2957104298816862e-02	1.7747095540011143e-01	7.5778373401238844e-02	1.0169258199887257e-01
61                      	2.3672051595213236e-02	1.4517891579766091e-02	9.1541600154471450e-03	-6.3570184752069633e-04	-4.4922080815003166e-04	-1.8648103937066464e-04	-1.3136988438968355e-04	2.6818657821594729e-03	-1.2954246252664494e-02	1.7745081700964130e-01	7.5771162252156160e-02	1.0167965475748514e-01
62                      	2.3700816906271065e-02	1.4556380037839255e-02	9.1444368684318097e-03	-7.0330180037719533e-04	-4.7590070716664368e-04	-2.2740109321055170e-04	-1.2424980697804601e-04	2.7059715847037227e-03	-1.2942661818306491e-02	1.7742293868991496e-01	7.5768807526650994e-02	1.0165413116326397e-01
63                      	2.3737308058077812e-02	1.4593897094229834e-02	9.1434109638479800e-03	-7.6022959480828321e-04	-5.0011171581248841e-04	-2.6011787899579486e-04	-1.1999691840834676e-04	2.7252430651909265e-03	-1.2928467214714041e-02	1.7739256077561422e-01	7.5767813173093071e-02	1.0162474760252115e-01
64                      	2.3779233939930432e-02	1.4624821979512589e-02	9.1544119604178454e-03	-7.9190923648289017e-04	-5.1437439233167328e-04	-2.7753484415121699e-04	-1.1841977409022815e-04	2.7352050095473708e-03	-1.2913425465393570e-02	1.7736794387012003e-01	7.5770546469666439e-02	1.0159739740045358e-01
65                      	2.3803039025070805e-02	1.4638107413219853e-02	9.1649316118509495e-03	-7.9796276197079423e-04	-5.1687563387725470e-04	-2.8108712809353942e-04	-1.1789425289185766e-04	2.7365879006844519e-03	-1.2904450537335290e-02	1.7735162833768167e-01	7.5771363631505537e-02	1.0158026470617612e-01
66                      	2.3818507958253420e-02	1.4643262328441724e-02	9.1752456298116961e-03	-7.8972133104974801e-04	-5.1174092918843984e-04	-2.7798040186130806e-04	-1.1688026366356587e-04	2.7340083493150136e-03	-1.2898726296217761e-02	1.7734452089167430e-01	7.5773534149619376e-02	1.0157098674205491e-01
67                      	2.3815100660968605e-02	1.4641143398756686e-02	9.1739572622119223e-03	-7.8385355967789500e-04	-5.0563002814071163e-04	-2.7822353153718327e-04	-1.1370324830176418e-04	2.7335930682723824e-03	-1.2898563139019081e-02	1.7734221817022550e-01	7.5772545946093658e-02	1.0156967222413184e-01
68                      	2.3809553509924787e-02	1.4644465139372643e-02	9.1650883705521428e-03	-7.9340325902030643e-04	-5.0498021915750121e-04	-2.8842303986280522e-04	-1.0827858964734799e-04	2.7396883844102494e-03	-1.2899138898980799e-02	1.7734196939148386e-01	7.5771845796761134e-02	1.0157012359472274e-01
69                      	2.3797177899529010e-02	1.4651538219318645e-02	9.1456396802103608e-03	-8.2215319166510333e-04	-5.1222249762244391e-04	-3.0993069404265943e-04	-1.0114590178989225e-04	2.7529492695541422e-03	-1.2901288360322366e-02	1.7733874039673694e-01	7.5768081838046106e-02	1.0157065855869084e-01
70                      	2.3795511174992783e-02	1.4668666579965083e-02	9.1268445950276993e-03	-8.6471894843123903e-04	-5.2616510944013760e-04	-3.3855383899110137e-04	-9.3805635224518142e-05	2.7709109924686924e-03	-1.2899978254655071e-02	1.7733188247001072e-01	7.5765962980350279e-02	1.0156591948966043e-01
71                      	2.3792612840609115e-02	1.4685886931157032e-02	9.1067259094520826e-03	-9.1067760112686154e-04	-5.4263476373325812e-04	-3.6804283739360336e-04	-8.7295963169827380e-05	2.7895805108524743e-03	-1.2898615598390685e-02	1.7732082506021368e-01	7.5761796931716155e-02	1.0155902812849751e-01
72                      	2.3796333563462023e-02	1.4703697957065828e-02	9.0926356063961954e-03	-9.5013162397641513e-04	-5.5746421485185389e-04	-3.9266740912456124e-04	-8.2398402863646339e-05	2.8055311753348170e-03	-1.2895572656957913e-02	1.7730949558551615e-01	7.5759175135800161e-02	1.0155032044971599e-01
73                      	2.3789874389259343e-02	1.4712156189252326e-02	9.0777182000070181e-03	-9.7791768500417385e-04	-5.6781440761609282e-04	-4.1010327738808102e-04	-7.8855565114005873e-05	2.8172189946226536e-03	-1.2895770760608881e-02	1.7729942156251938e-01	7.5753940020650820e-02	1.0154548154186857e-01
74                      	2.3782568057057300e-02	1.4716700889686239e-02	9.0658671673710632e-03	-9.9497603086693017e-04	-5.7375479834380686e-04	-4.2122123252312337e-04	-7.6266782910341718e-05	2.8254168611575865e-03	-1.2896937306973243e-02	1.7729384166517118e-01	7.5749983525612338e-02	1.0154385813955882e-01
75                      	2.3759879663510074e-02	1.4712442529787990e-02	9.0474371337220839e-03	-1.0071080738883621e-03	-5.7709312514123102e-04	-4.3001494874713104e-04	-7.3539088197049966e-05	2.8325026980329533e-03	-1.2903130803412268e-02	1.7729251199394469e-01	7.5743125193560065e-02	1.0154938680038461e-01
76                      	2.3732421798165856e-02	1.4707363584711055e-02	9.0250582134548014e-03	-1.0213626150467018e-03	-5.8087856602056858e-04	-4.4048404902613314e-04	-7.0197258497217750e-05	2.8411526856281268e-03	-1.2911659263770954e-02	1.7729660805074260e-01	7.5736644761600330e-02	1.0155996328914225e-01
77                      	2.3690175706390287e-02	1.4698084799558947e-02	8.9920909068313404e-03	-1.0425620282566775e-03	-5.8714299362825262e-04	-4.5541903462842484e-04	-6.5861979499913861e-05	2.8529969463638046e-03	-1.2924988373079078e-02	1.7730344216851940e-01	7.5726732711180633e-02	1.0157670945733878e-01
78                      	2.3649482869091628e-02	1.4692633695838724e-02	8.9568491732529044e-03	-1.0709178330004154e-03	-5.9669905389141858e-04	-4.7421877910899693e-04	-6.1240137391210825e-05	2.8678922612929091e-03	-1.2938470036048760e-02	1.7731238818986267e-01	7.5717724058882566e-02	1.0159466413098010e-01
79                      	2.3599794559255614e-02	1.4684183309596439e-02	8.9156112496591774e-03	-1.1028936401970425e-03	-6.0835062435031376e-04	-4.9454301584672873e-04	-5.6903804251792476e-05	2.8842860299686298e-03	-1.2954831712198371e-02	1.7732111249522653e-01	7.5705724535414881e-02	1.0161538795981163e-01
80                      	2.3551789512524721e-02	1.4676085021485440e-02	8.8757044910392803e-03	-1.1334390454740548e-03	-6.2051967261804843e-04	-5.1291937285600630e-04	-5.3800149881021067e-05	2.9001902652230787e-03	-1.2971431080695104e-02	1.7733091239027304e-01	7.5694025114441413e-02	1.0163688727583162e-01
81                      	2.3493607832527720e-02	1.4660766941992403e-02	8.8328408905353172e-03	-1.1583460498072625e-03	-6.3121545038725122e-04	-5.2713059942001135e-04	-5.2042425483619922e-05	2.9139630257285433e-03	-1.2991455848402925e-02	1.7734073940305001e-01	7.5678913853122087e-02	1.0166182554992792e-01
82                      	2.3437178075240518e-02	1.4643807079078339e-02	8.7933709961621753e-03	-1.1763930216436547e-03	-6.3975377979711800e-04	-5.3663924184653683e-04	-5.1557268975290535e-05	2.9252180414580825e-03	-1.3011747356470258e-02	1.7735239362568356e-01	7.5664449456371519e-02	1.0168794416931203e-01
83                      	2.3368783455332956e-02	1.4618674967434154e-02	8.7501084878988042e-03	-1.1885639226895863e-03	-6.4603992704734248e-04	-5.4252399564224372e-04	-5.1757965702549353e-05	2.9342832397676751e-03	-1.3036124518072116e-02	1.7736555435391288e-01	7.5646652658884317e-02	1.0171890169502856e-01
84                      	2.3298364155159047e-02	1.4591418617016991e-02	8.7069455381420559e-03	-1.1976764947015134e-03	-6.5122392655304158e-04	-5.4645256814847185e-04	-5.2385679202284876e-05	2.9422365394374686e-03	-1.3062122195158787e-02	1.7738237852709510e-01	7.5629067068388747e-02	1.0175331145870634e-01
85                      	2.3214769284821860e-02	1.4557569014323365e-02	8.6572002704984954e-03	-1.2065987993718065e-03	-6.5625433591476128e-04	-5.5034446345704523e-04	-5.2954936228857998e-05	2.9501843719124351e-03	-1.3092619572781782e-02	1.7740147366065567e-01	7.5608117257546056e-02	1.0179335640310962e-01
86                      	2.3133018533379304e-02	1.4525129764249023e-02	8.6078887691302831e-03	-1.2165547566181793e-03	-6.6221759437382261e-04	-5.5433716224435664e-04	-5.3940216064732961e-05	2.9586204975593704e-03	-1.3123321812523247e-02	1.7742330374570539e-01	7.5588330060329459e-02	1.0183497368537593e-01
87                      	2.3042046182502940e-02	1.4488182309090339e-02	8.5538638734126010e-03	-1.2266381837615814e-03	-6.6899815967478833e-04	-5.5764002408679309e-04	-5.5679067793997636e-05	2.9671592178388681e-03	-1.3157044901838482e-02	1.7744601697514428e-01	7.5565963585733656e-02	1.0188005338941063e-01
88                      	2.2954186616081226e-02	1.4452157640328967e-02	8.5020289757522585e-03	-1.2348138975880913e-03	-6.7630305844697670e-04	-5.5851083914111469e-04	-5.8896109652930941e-05	2.9750643322883543e-03	-1.3190534085536394e-02	1.7747042258220835e-01	7.5544677205567776e-02	1.0192574537664056e-01
89                      	2.2859023641694412e-02	1.4411043204270144e-02	8.4479804374242694e-03	-1.2389797615525338e-03	-6.8314059267007463e-04	-5.5583916888245904e-04	-6.3650711893807821e-05	2.9815313834229379e-03	-1.3226301702222752e-02	1.7749447495952705e-01	7.5520935777540779e-02	1.0197353918198629e-01
90                      	2.2771325906895172e-02	1.4371309023623366e-02	8.4000168832718061e-03	-1.2369491168751838e-03	-6.8889210164332069e-04	-5.4805701523186299e-04	-7.0417543205728906e-05	2.9856460701757795e-03	-1.3260138287090686e-02	1.7751864213466723e-01	7.5499182780242924e-02	1.0201945935442429e-01
91                      	2.2678962854824583e-02	1.4326148199395114e-02	8.3528146554294695e-03	-1.2273887272112810e-03	-6.9272950761164055e-04	-5.3465921959964038e-04	-7.9035144006000055e-05	2.9866667719828217e-03	-1.3295219887537221e-02	1.7754167526983725e-01	7.5475617747381402e-02	1.0206605752245584e-01
92                      	2.2592560084204502e-02	1.4280881518895599e-02	8.3116785653089050e-03	-1.2106379867408740e-03	-6.9475716375054638e-04	-5.1588082299032750e-04	-8.9438170380109469e-05	2.9846014767933469e-03	-1.3328895534225447e-02	1.7756525768634174e-01	7.5453733308945420e-02	1.0211152437739632e-01
93                      	2.2500259961804759e-02	1.4229703548943828e-02	8.2705564128609313e-03	-1.1875528418303504e-03	-6.9501349982566975e-04	-4.9253934200468071e-04	-1.0123707891049455e-04	2.9795735680414478e-03	-1.3364187530557441e-02	1.7758814506434384e-01	7.5429885001614488e-02	1.0215826006272936e-01
94                      	2.2416899884098410e-02	1.4180599170046512e-02	8.2363007140518994e-03	-1.1595989207512742e-03	-6.9420621685927766e-04	-4.6539270389199658e-04	-1.1440675648364054e-04	2.9721492279973062e-03	-1.3396973211702043e-02	1.7761121352000467e-01	7.5408633548300311e-02	1.0220257997170437e-01