# Solver information    
# Time                  	U_solver                	Ux_initial              	Ux_final                	Ux_iters                	Uy_initial              	Uy_final                	Uy_iters                	Uz_initial              	Uz_final                	Uz_iters                	U_converged             	h_solver                	h_initial               	h_final                 	h_iters                 	h_converged             	nuTilda_solver          	nuTilda_initial         	nuTilda_final           	nuTilda_iters           	nuTilda_converged       	p_solver                	p_initial               	p_final                 	p_iters                 	p_converged             
1                       	DILUPBiCGStab	9.9989139138010275e-01	6.9813587481661601e-03	1	1.0000000000000000e+00	2.4812481987429870e-03	2	1.0000000000000000e+00	3.1557825531962438e-03	2	false	DILUPBiCGStab	9.9991813242961491e-01	5.9027539490013282e-03	1	true	DILUPBiCGStab	9.9999930099223788e-01	6.3239162801085149e-04	1	true	GAMG	9.9999999953762209e-01	9.4717742301943294e-03	21	true
2                       	DILUPBiCGStab	2.2549568839820171e-04	2.2153119904904789e-06	1	4.1141451443490441e-02	3.9670002387421347e-05	2	9.6226255661479763e-04	8.5467489345995745e-06	1	false	DILUPBiCGStab	3.3201917131372511e-04	5.4881759024345676e-07	2	true	DILUPBiCGStab	5.1006637759090438e-05	1.6827747528678161e-07	1	true	GAMG	1.4233427603063220e-03	1.2311105088959280e-05	12	true
3                       	DILUPBiCGStab	9.4079281381347752e-05	8.9248209808255373e-07	1	1.0115561334157761e-02	9.6873659565184328e-06	2	2.2516450509363581e-04	2.0377347188555879e-06	1	false	DILUPBiCGStab	7.8804766680031445e-04	1.2223331445108520e-06	2	true	DILUPBiCGStab	1.8810064677268428e-05	1.1609440243750780e-07	1	true	GAMG	1.5715411044994140e-03	1.4920796870614250e-05	10	true
4                       	DILUPBiCGStab	6.2792777829702982e-05	5.3693044983860658e-07	1	5.4848334514753750e-03	5.3780704124298481e-06	2	1.1882635212877611e-04	1.0698589321264661e-06	1	false	DILUPBiCGStab	1.1430376508044290e-03	1.7497833383587219e-06	2	true	DILUPBiCGStab	1.5178527228345550e-05	1.1058053883781601e-07	1	true	GAMG	2.0347196085571009e-03	1.7803743162342278e-05	13	true
5                       	DILUPBiCGStab	4.8340465512250717e-05	3.0566749130307931e-07	1	2.5814409425298098e-03	3.2450676507514011e-06	2	5.8612096913311151e-05	5.3933860425413691e-07	1	false	DILUPBiCGStab	1.7018738770476871e-03	3.0149953133065020e-06	2	true	DILUPBiCGStab	1.5251556473664589e-05	1.1258402200034510e-07	1	true	GAMG	3.2167285129312221e-03	2.7810979452878401e-05	15	true
6                       	DILUPBiCGStab	4.5341960066320889e-05	1.5993774042539609e-07	1	1.6178629081670249e-03	2.9618370010070719e-06	2	2.7132732407308870e-05	3.0198630272682623e-08	2	false	DILUPBiCGStab	7.1610773632577876e-03	3.5852437974816348e-05	2	true	DILUPBiCGStab	1.2668732312349751e-05	5.1462555599544243e-08	2	true	GAMG	3.2127376894111527e-02	3.1315235755280532e-04	13	true
7                       	DILUPBiCGStab	6.3515050101100614e-05	2.9870761834931252e-07	1	4.9420546971117663e-03	4.8220085826697023e-05	1	7.8684151814192613e-05	5.7790159696579823e-08	2	false	DILUPBiCGStab	1.0497612097336980e-03	7.6391553962823432e-06	2	true	DILUPBiCGStab	1.4404542220696390e-05	1.1628817751897470e-07	1	true	GAMG	3.1741100448804201e-03	3.0773644720738512e-05	11	true
8                       	DILUPBiCGStab	7.7413888084327051e-05	4.4207200289918402e-07	1	8.5299617035093853e-03	4.3092907915249187e-05	2	1.6722605046888930e-04	1.2089185183629120e-07	2	false	DILUPBiCGStab	7.4886833663832266e-04	4.4278693621708559e-06	2	true	DILUPBiCGStab	1.4227710466105660e-05	1.2406534224926879e-07	1	true	GAMG	3.3549668296265290e-03	2.7980352273303369e-05	11	true
9                       	DILUPBiCGStab	6.7608105877616049e-05	4.4151365377748578e-07	1	1.0466575535993240e-02	1.0348137378250690e-05	2	2.8463011669696499e-04	2.7688500972696030e-06	1	false	DILUPBiCGStab	1.0918237177042840e-03	2.7582580261503199e-06	2	true	DILUPBiCGStab	1.6937770090923180e-05	1.3408331875188641e-07	1	true	GAMG	4.7233578226859247e-03	4.0292143449903628e-05	12	true
10                      	DILUPBiCGStab	4.7552980366798269e-05	3.2544383730735769e-07	1	5.5940575550631451e-03	9.5958224727474878e-06	2	1.7381491520149160e-04	1.5408746303057590e-06	1	false	DILUPBiCGStab	1.5804807083187420e-03	3.6876390763462441e-06	2	true	DILUPBiCGStab	1.8068269282098881e-05	1.3781566166007780e-07	1	true	GAMG	1.2020395735099700e-02	1.0892707005973730e-04	13	true
11                      	DILUPBiCGStab	5.5671696393041007e-05	2.4510755765314650e-07	1	4.1646304626075416e-03	6.2909361296358662e-06	2	8.7972713687949671e-05	8.0982840007065045e-07	1	false	DILUPBiCGStab	1.2553941397092120e-03	3.2464354531211640e-06	2	true	DILUPBiCGStab	2.3852303221068118e-05	1.8626286706543920e-07	1	true	GAMG	7.7546285018724077e-03	6.7077300391565526e-05	13	true
12                      	DILUPBiCGStab	6.2298090608681181e-05	2.7495923049803990e-07	1	4.1101974032331226e-03	1.8755432439214119e-05	2	8.2716824359157731e-05	8.0330941070755229e-07	1	false	DILUPBiCGStab	8.0967854646576574e-04	2.8585491916714249e-06	2	true	DILUPBiCGStab	2.5191492525323199e-05	1.8656477172042031e-07	1	true	GAMG	4.1119523556187778e-03	4.1036418691154343e-05	10	true
13                      	DILUPBiCGStab	5.4351488331747810e-05	2.7009832808598971e-07	1	3.2242828847292670e-03	3.1273438500158517e-05	1	6.4557641712040018e-05	3.8175786272151853e-08	2	false	DILUPBiCGStab	5.7637018295204868e-04	5.2908698040377147e-06	1	true	DILUPBiCGStab	5.0567989180802921e-05	2.2407184193299589e-07	1	true	GAMG	4.5562489016549258e-03	4.1239019996449703e-05	10	true
14                      	DILUPBiCGStab	3.9324845790220838e-05	2.1298918483354970e-07	1	1.9475711744333470e-03	1.9024250593711681e-05	1	4.1739537800900108e-05	3.3267427267626422e-08	2	false	DILUPBiCGStab	4.2657595894873059e-04	3.2571266794319669e-06	1	true	DILUPBiCGStab	3.5314376643572479e-05	2.5814457982909432e-07	1	true	GAMG	6.1931914487109389e-03	5.3050691029346472e-05	11	true
15                      	DILUPBiCGStab	2.6366876524839532e-05	1.1919214343608410e-07	1	1.2430078923773181e-03	2.0897984927801211e-06	2	2.2939608070756509e-05	2.1942916252856310e-07	1	false	DILUPBiCGStab	3.5272550564356518e-04	3.0081676211033698e-06	1	true	DILUPBiCGStab	7.1374128807733805e-05	2.8602106541474589e-07	1	true	GAMG	1.2683571880046790e-02	1.1939263311087441e-04	11	true
16                      	DILUPBiCGStab	2.2702449746887200e-05	1.4827329082192420e-07	1	1.6590091777016580e-03	3.0735821248242991e-06	2	2.1470098225537200e-05	1.3313786899703169e-07	1	false	DILUPBiCGStab	2.9419427809847221e-04	2.8305495114610150e-06	1	true	DILUPBiCGStab	4.2397045245363541e-05	3.1769682452782261e-07	1	true	GAMG	2.5430211803554901e-02	2.4219623023039879e-04	10	true
17                      	DILUPBiCGStab	3.5402992012475377e-05	1.1100034959424180e-07	1	2.4761689092812119e-03	1.0416899508258970e-05	2	3.2592677395825673e-05	1.8397329256170850e-07	1	false	DILUPBiCGStab	2.4794300852473201e-04	2.1858689718150960e-07	2	true	DILUPBiCGStab	7.5841760385653864e-05	3.6651910852902753e-07	1	true	GAMG	1.1193922872498650e-02	1.0277942994049180e-04	9	true
18                      	DILUPBiCGStab	4.5010307292586692e-05	1.2851822525188050e-07	1	2.5738973844669408e-03	2.2695162062072972e-05	2	3.8985388514550548e-05	2.5461490029006639e-07	1	false	DILUPBiCGStab	2.1494657242203901e-04	2.1709046933794571e-07	2	true	DILUPBiCGStab	5.5368365438170077e-05	4.1728143649750751e-07	1	true	GAMG	1.3936505834408671e-02	1.3761018681933670e-04	9	true
19                      	DILUPBiCGStab	4.3180041081510599e-05	1.1071481294951330e-07	1	1.8193185479891550e-03	1.7619768983548539e-05	1	3.3268132328154857e-05	2.4795077724003908e-07	1	false	DILUPBiCGStab	1.9739407770222881e-04	2.2051114133381721e-07	2	true	DILUPBiCGStab	1.0262492783837770e-04	4.8290048395092495e-07	1	true	GAMG	3.7809059468459437e-02	3.5479401261519721e-04	9	true
20                      	DILUPBiCGStab	3.2787708765840929e-05	1.0193933993544270e-07	1	1.4455634876895101e-03	4.7187108695951014e-06	2	2.6271876859621371e-05	1.7546163795279739e-07	1	false	DILUPBiCGStab	1.9281995277358241e-04	2.1227542057799339e-07	2	true	DILUPBiCGStab	7.3399917554489507e-05	5.3109407370566884e-07	1	true	GAMG	1.8783897535586291e-02	1.6595991680826551e-04	10	true
21                      	DILUPBiCGStab	2.2079436043126729e-05	9.9162973994658621e-08	1	1.6535377744180571e-03	6.2881588142554110e-06	2	2.6585859360558178e-05	1.6551864827532420e-07	1	false	DILUPBiCGStab	1.8321411673378400e-04	1.8598324857412809e-07	2	true	DILUPBiCGStab	1.3310289974703010e-04	6.3920300464269392e-07	1	true	GAMG	7.0510667589828669e-03	6.9633611430388445e-05	9	true
22                      	DILUPBiCGStab	1.9408629828723519e-05	9.2521908293427853e-08	1	1.6197404531741620e-03	5.5588411434823826e-06	2	2.5860801919227199e-05	1.9283702749570699e-07	1	false	DILUPBiCGStab	1.6940042131693311e-04	1.6069320005286170e-06	1	true	DILUPBiCGStab	1.1902295615258650e-04	7.3395909276960030e-07	1	true	GAMG	6.8752789131699514e-03	5.5750466364387273e-05	9	true
23                      	DILUPBiCGStab	2.6965315859103819e-05	9.5240520097480236e-08	1	1.2405213612581929e-03	4.5859728281651807e-06	2	2.1292665244906110e-05	1.6163946922610260e-07	1	false	DILUPBiCGStab	1.5223534067764131e-04	1.3169060363390270e-06	1	true	DILUPBiCGStab	2.5427647562267618e-04	1.0060892739608150e-06	1	true	GAMG	8.6361553562370238e-03	7.9497878330518778e-05	9	true
24                      	DILUPBiCGStab	2.8805309706306149e-05	7.9305594380361646e-08	1	8.7404874204027156e-04	9.9617594549962511e-07	2	1.5664125453627288e-05	1.2133660968732161e-07	1	false	DILUPBiCGStab	1.3564284219503631e-04	1.0468525423498050e-06	1	true	DILUPBiCGStab	2.6902719180707117e-04	1.4026562523249350e-06	1	true	GAMG	1.1350425503906690e-02	9.4673999916044380e-05	9	true
25                      	DILUPBiCGStab	2.5028914653863979e-05	6.0509902923338895e-08	1	8.7646181043200475e-04	5.9816441186233838e-06	1	1.3061451027138010e-05	9.7067369743644351e-08	1	false	DILUPBiCGStab	1.2251291284199150e-04	8.2967682993002639e-07	1	true	DILUPBiCGStab	1.2928387125216399e-03	4.7447281957392823e-06	1	true	GAMG	1.5745273211011379e-02	1.4444249689871060e-04	9	true
26                      	DILUPBiCGStab	1.8673716873191809e-05	4.1090737088018442e-08	1	1.0903834960126610e-03	9.9958091999373869e-06	1	1.3094141727197780e-05	7.3073522006717034e-08	1	false	DILUPBiCGStab	1.1534861889773850e-04	6.5685234114240903e-07	1	true	DILUPBiCGStab	8.7087189909279626e-04	3.7545785520356009e-06	1	true	GAMG	2.4442730613257139e-02	1.7214196658321999e-04	10	true
27                      	DILUPBiCGStab	1.4215869745659030e-05	2.8779560306029429e-08	1	1.1717568922046280e-03	3.4889424266548100e-06	2	1.3741059501237749e-05	6.9376691560536498e-08	1	false	DILUPBiCGStab	1.1159504392778751e-04	6.0843989201211113e-07	1	true	DILUPBiCGStab	3.7560284840816252e-04	1.1462116423078990e-06	1	true	GAMG	3.0290983309103289e-02	2.9214317754775002e-04	8	true
28                      	DILUPBiCGStab	1.8043153199741480e-05	3.1419970016419267e-08	1	1.0274945925738820e-03	4.2132864231965247e-06	2	1.3415028173992251e-05	6.7367457252147230e-08	1	false	DILUPBiCGStab	1.0452265747850930e-04	5.9798329794872720e-07	1	true	DILUPBiCGStab	1.6726726148775801e-04	6.4065586545574317e-07	1	true	GAMG	2.1190970220472779e-02	2.1164896929597670e-04	8	true
29                      	DILUPBiCGStab	2.2565328684528740e-05	3.3714320796352017e-08	1	8.2826272696153109e-04	8.3954397058964167e-07	2	1.2166317205786709e-05	6.3284657083478710e-08	1	false	DILUPBiCGStab	9.6301270695446349e-05	5.8267991857542775e-07	1	true	DILUPBiCGStab	1.5371449290376549e-04	4.8287402170416513e-07	1	true	GAMG	1.2560950696353939e-02	9.5791039802526013e-05	9	true
30                      	DILUPBiCGStab	2.1371276660876309e-05	3.2263009967471188e-08	1	8.1255439922349026e-04	5.1022477542606840e-06	1	1.1875369788018810e-05	6.0081382764023139e-08	1	false	DILUPBiCGStab	9.1422275434669870e-05	5.7465208161757205e-07	1	true	DILUPBiCGStab	9.8651467939914940e-05	3.4757829595974291e-07	1	true	GAMG	7.7689388949612730e-03	6.2894488047299038e-05	9	true
31                      	DILUPBiCGStab	1.6264457394038411e-05	2.4325483794364051e-08	1	8.4600141136988085e-04	5.6192156031721038e-06	1	1.1935582540479259e-05	6.2625020772782409e-08	1	false	DILUPBiCGStab	9.0882152568066336e-05	5.7061148529245722e-07	1	true	DILUPBiCGStab	1.0731862419189470e-04	3.1705211599889801e-07	1	true	GAMG	5.5972426212347040e-03	5.5368344397381269e-05	9	true
32                      	DILUPBiCGStab	1.0854547780516479e-05	1.8108725921459239e-08	1	7.8218523738699788e-04	6.6607190214860384e-06	1	1.1402478463277380e-05	6.6960313317628907e-08	1	false	DILUPBiCGStab	8.9965003043851002e-05	5.6170191193602943e-07	1	true	DILUPBiCGStab	6.5246400377637760e-05	2.5602387665153760e-07	1	true	GAMG	5.9308959215010441e-03	3.8976424393048198e-05	10	true
33                      	DILUPBiCGStab	9.7641344367988548e-06	2.3404860998473569e-08	1	6.8575125404038689e-04	6.6640735012825234e-06	1	1.0707212651730180e-05	6.4516300831127346e-08	1	false	DILUPBiCGStab	8.7442120104815003e-05	5.4359739427346135e-07	1	true	DILUPBiCGStab	7.0022430816870068e-05	2.2931625117216709e-07	1	true	GAMG	6.9196683000076146e-03	6.8848169978299301e-05	8	true
34                      	DILUPBiCGStab	1.4194698730720251e-05	2.1262434673646810e-08	1	6.5028449051125260e-04	4.4872420359183600e-06	1	1.0161572603955529e-05	5.0972263154843707e-08	1	false	DILUPBiCGStab	8.3373202922315591e-05	5.1635174155827921e-07	1	true	DILUPBiCGStab	5.4020976940920130e-05	2.2623060181122041e-07	1	true	GAMG	7.1491389943359653e-03	5.6780517790642070e-05	9	true
35                      	DILUPBiCGStab	1.5270289187430992e-05	1.7335299118509341e-08	1	6.7764651317671820e-04	3.6334039277381602e-06	1	9.7320149046372974e-06	3.9290212623511578e-08	1	false	DILUPBiCGStab	7.8378118343513890e-05	4.8210545281116903e-07	1	true	DILUPBiCGStab	6.3994098206786722e-05	1.9664673676305799e-07	1	true	GAMG	6.3752950523975468e-03	6.3213670352246307e-05	8	true
36                      	DILUPBiCGStab	1.2942726211951801e-05	1.4468258016843060e-08	1	6.9168478400963393e-04	4.1043383443421251e-06	1	9.2847922296461118e-06	3.9734337211059218e-08	1	false	DILUPBiCGStab	7.3621164498069875e-05	4.4665489523847748e-07	1	true	DILUPBiCGStab	3.9737548678806568e-05	2.0013452338776229e-07	1	true	GAMG	5.3878166625125181e-03	4.6733696860905157e-05	9	true
37                      	DILUPBiCGStab	9.3147153952290919e-06	1.7559659470042932e-08	1	6.3982765846937119e-04	3.7447964992597251e-06	1	8.7195980634623713e-06	3.9633883377629557e-08	1	false	DILUPBiCGStab	7.1022280448050822e-05	4.1800097588405972e-07	1	true	DILUPBiCGStab	4.3258807651180308e-05	1.9220123263344521e-07	1	true	GAMG	5.1607458243829009e-03	4.4127102214842167e-05	9	true
38                      	DILUPBiCGStab	7.4401354005034279e-06	2.8153233709726679e-08	1	5.5509989183429292e-04	3.4189932336283152e-06	1	8.2548284207252164e-06	3.9489614425207721e-08	1	false	DILUPBiCGStab	6.9688786358986215e-05	3.9361917127010421e-07	1	true	DILUPBiCGStab	3.8526831937178872e-05	1.9495726298765761e-07	1	true	GAMG	4.9768548214661279e-03	4.9178873205607853e-05	8	true
39                      	DILUPBiCGStab	1.0024549501065611e-05	2.6751241349890470e-08	1	5.1882778693538927e-04	3.1880019395896689e-06	1	8.0797231898922722e-06	3.9744177083165667e-08	1	false	DILUPBiCGStab	6.7070609378737839e-05	3.7074915751452118e-07	1	true	DILUPBiCGStab	4.7956828161596171e-05	1.6167562796756671e-07	1	true	GAMG	4.4059000713171353e-03	3.5686023932270767e-05	9	true
40                      	DILUPBiCGStab	1.1198680227997731e-05	1.9103243727876819e-08	1	5.2207643092943624e-04	2.7396754527125979e-06	1	8.0698758166382088e-06	4.0171093093578237e-08	1	false	DILUPBiCGStab	6.4815512597185329e-05	3.5495047562623440e-07	1	true	DILUPBiCGStab	2.9286608095063419e-05	1.7818307148273479e-07	1	true	GAMG	3.6514385851368078e-03	3.5339529094672102e-05	8	true
41                      	DILUPBiCGStab	9.8432028391916614e-06	1.5488970868373990e-08	1	5.2760261189352235e-04	2.7467632680137171e-06	1	8.1899077721902563e-06	4.1447745664419509e-08	1	false	DILUPBiCGStab	6.4738866292681459e-05	3.4828625279999060e-07	1	true	DILUPBiCGStab	2.9890034606221629e-05	1.6994747022057229e-07	1	true	GAMG	3.1399983160015558e-03	2.6511708429282041e-05	9	true
42                      	DILUPBiCGStab	7.1493348420061760e-06	1.6775508098870370e-08	1	5.2246565204315748e-04	2.5587273509502262e-06	1	8.2901715664261662e-06	4.3766626156311729e-08	1	false	DILUPBiCGStab	6.5731433449122756e-05	3.4737206407911843e-07	1	true	DILUPBiCGStab	3.3391525166576241e-05	1.5852717033772981e-07	1	true	GAMG	3.0769827519133638e-03	2.5073831229140741e-05	9	true
43                      	DILUPBiCGStab	5.0590494610545666e-06	2.4492216744717519e-08	1	5.1956043578753168e-04	2.5900012841708150e-06	1	8.2882888472908641e-06	4.6601940806496343e-08	1	false	DILUPBiCGStab	6.5815483061667929e-05	3.4748246691444638e-07	1	true	DILUPBiCGStab	2.8220948393237100e-05	1.4795262099167949e-07	1	true	GAMG	3.1720095672167050e-03	2.5186531135670970e-05	9	true
44                      	DILUPBiCGStab	5.9376644122491869e-06	2.7904971121178269e-08	1	5.1767204203981775e-04	2.6000319826857988e-06	1	8.1542464990611499e-06	4.9034518108627602e-08	1	false	DILUPBiCGStab	6.4743403874903817e-05	3.4641551396145019e-07	1	true	DILUPBiCGStab	2.8683279786568699e-05	1.4351824811148730e-07	1	true	GAMG	2.9805920002775252e-03	2.2728210365806480e-05	9	true
45                      	DILUPBiCGStab	7.6193780337725437e-06	2.3129899088498201e-08	1	5.0503140038674424e-04	2.3562778891548189e-06	1	7.8835251908079035e-06	5.0307113398529109e-08	1	false	DILUPBiCGStab	6.2777849825843267e-05	3.4382779529130879e-07	1	true	DILUPBiCGStab	2.4421756127490500e-05	1.3673645847190141e-07	1	true	GAMG	2.5507538344651899e-03	2.2138239959702750e-05	8	true
46                      	DILUPBiCGStab	7.3154439341106977e-06	1.9186011278700998e-08	1	4.8029956812361890e-04	2.0927744715127869e-06	1	7.5368939819888473e-06	5.0587036402338327e-08	1	false	DILUPBiCGStab	6.0469297254582609e-05	3.4116606632186929e-07	1	true	DILUPBiCGStab	2.7728402652811449e-05	1.2546867558959659e-07	1	true	GAMG	2.1638837194883900e-03	1.8840048618402401e-05	9	true
47                      	DILUPBiCGStab	5.7781659693589147e-06	1.9870843291352351e-08	1	4.5184819205936378e-04	1.9362033101432991e-06	1	7.2041686585970803e-06	5.0175392808912518e-08	1	false	DILUPBiCGStab	5.8411826403506303e-05	3.3922833170058331e-07	1	true	DILUPBiCGStab	2.2602898491283309e-05	1.1745069611511080e-07	1	true	GAMG	2.0125039863527270e-03	1.7681822776436550e-05	9	true
48                      	DILUPBiCGStab	4.3154733423725332e-06	2.3779037103259682e-08	1	4.3629644246521391e-04	2.0716607604399031e-06	1	6.9740157434279089e-06	4.9132367050384743e-08	1	false	DILUPBiCGStab	5.7320135380108050e-05	3.3894645385786390e-07	1	true	DILUPBiCGStab	2.3218688875484891e-05	1.1318835723740930e-07	1	true	GAMG	2.0208583952341630e-03	1.6725753956080911e-05	9	true
49                      	DILUPBiCGStab	4.5141786378381758e-06	2.4904834612088650e-08	1	4.3646632115513020e-04	2.3156855447901019e-06	1	6.8934391201374908e-06	4.7838411499670443e-08	1	false	DILUPBiCGStab	5.6755829261190187e-05	3.3934515084790990e-07	1	true	DILUPBiCGStab	2.1497899565211381e-05	1.0686721968671290e-07	1	true	GAMG	1.9248113454753829e-03	1.8700123487763249e-05	8	true
50                      	DILUPBiCGStab	5.6990086890931411e-06	2.2037151077486550e-08	1	4.4559742322687189e-04	2.3683559353494032e-06	1	6.9371157353686754e-06	4.6703587611451727e-08	1	false	DILUPBiCGStab	5.6083922450373883e-05	3.3830209274782768e-07	1	true	DILUPBiCGStab	2.2391095973196580e-05	1.0283668615557170e-07	1	true	GAMG	1.7396004541210630e-03	1.6942994464442030e-05	8	true
51                      	DILUPBiCGStab	5.4664254121829169e-06	1.7729119673546360e-08	1	4.5814095286897931e-04	2.3327943367761508e-06	1	7.0275526188224717e-06	4.5863148922674921e-08	1	false	DILUPBiCGStab	5.6268129738163969e-05	3.3904335168769247e-07	1	true	DILUPBiCGStab	2.0300824862318110e-05	9.7992239446968224e-08	1	true	GAMG	1.5346150052403861e-03	1.4613681264378190e-05	8	true
52                      	DILUPBiCGStab	4.3585453506969220e-06	1.6170578456447630e-08	1	4.7168163590470091e-04	2.3768436443635442e-06	1	7.0795379518363382e-06	4.5307152193012133e-08	1	false	DILUPBiCGStab	5.6990029145144870e-05	3.4059118731419991e-07	1	true	DILUPBiCGStab	1.9948131433022000e-05	9.6022734448878983e-08	1	true	GAMG	1.4178379116168811e-03	1.1456389535263341e-05	9	true
53                      	DILUPBiCGStab	3.1474131167051510e-06	1.6492273187425069e-08	1	4.7977027592991121e-04	2.5157522274679240e-06	1	7.0484040364470640e-06	4.4683976475506950e-08	1	false	DILUPBiCGStab	5.7358262551389242e-05	3.3989787201491670e-07	1	true	DILUPBiCGStab	1.9469529958205581e-05	9.2142660223117032e-08	1	true	GAMG	1.4340545984583709e-03	1.1252530539443879e-05	9	true
54                      	DILUPBiCGStab	2.8187577798632941e-06	1.6647853634535731e-08	1	4.7967384762792121e-04	2.6100502946170149e-06	1	6.9333112837674277e-06	4.3711899232295727e-08	1	false	DILUPBiCGStab	5.7158965099438690e-05	3.3663020894965743e-07	1	true	DILUPBiCGStab	1.8422569957441439e-05	9.0467799294853954e-08	1	true	GAMG	1.3783376112583450e-03	1.3641959712046350e-05	8	true
55                      	DILUPBiCGStab	3.7408365996842710e-06	1.7513020086416630e-08	1	4.7401980328873349e-04	2.5347140461745972e-06	1	6.7636720009360216e-06	4.2472542532522228e-08	1	false	DILUPBiCGStab	5.6440808653286939e-05	3.3129758437460231e-07	1	true	DILUPBiCGStab	1.8101285699737819e-05	8.6965013054860940e-08	1	true	GAMG	1.2411231560743609e-03	9.8029619342349968e-06	9	true
56                      	DILUPBiCGStab	3.9389930565386402e-06	1.5652587069488960e-08	1	4.6825022161898718e-04	2.3727236566096109e-06	1	6.5819891831756569e-06	4.1181337946297951e-08	1	false	DILUPBiCGStab	5.5421453072055313e-05	3.2545032107934882e-07	1	true	DILUPBiCGStab	1.7761195885528841e-05	8.5179304260182041e-08	1	true	GAMG	1.0892053692304650e-03	8.0328088308695382e-06	9	true
57                      	DILUPBiCGStab	3.4323680196299770e-06	1.4257651966419990e-08	1	4.6903502216829029e-04	2.2779045152040699e-06	1	6.4296614200551629e-06	4.0040299243659899e-08	1	false	DILUPBiCGStab	5.4361832350486620e-05	3.1973882171042770e-07	1	true	DILUPBiCGStab	1.6872681651868550e-05	8.1956642967186287e-08	1	true	GAMG	1.0003474892856050e-03	9.7282727835785597e-06	9	true
58                      	DILUPBiCGStab	2.7582340074259902e-06	1.3839309547032950e-08	1	4.7780835357310848e-04	2.3383050671772620e-06	1	6.3376971101415826e-06	3.9170056919553040e-08	1	false	DILUPBiCGStab	5.3471581362579378e-05	3.1518236140148100e-07	1	true	DILUPBiCGStab	1.6523000894815971e-05	8.0445106298697583e-08	1	true	GAMG	1.0150434493027981e-03	1.0094291936252000e-05	8	true
59                      	DILUPBiCGStab	2.5737989678969380e-06	1.3500482209546510e-08	1	4.9341894150196984e-04	2.5672486768231849e-06	1	6.3121638107279004e-06	3.8578776266070637e-08	1	false	DILUPBiCGStab	5.2857029477900920e-05	3.1162096682556759e-07	1	true	DILUPBiCGStab	1.6269174389636391e-05	7.7368497803590597e-08	1	true	GAMG	1.0010077276808649e-03	8.5477853761950031e-06	8	true
60                      	DILUPBiCGStab	3.1400165643702838e-06	1.3755858957456260e-08	1	5.1404000248633200e-04	2.8564634685347219e-06	1	6.3299616305377104e-06	3.8163279786282138e-08	1	false	DILUPBiCGStab	5.2545615246902882e-05	3.0838872642268432e-07	1	true	DILUPBiCGStab	1.5896917699801481e-05	7.5563950894245536e-08	1	true	GAMG	9.3220136903112674e-04	8.6460688118849620e-06	8	true
61                      	DILUPBiCGStab	3.2170645507630831e-06	1.2427506628092980e-08	1	5.3719616527185619e-04	3.0571496052085579e-06	1	6.3516295294793234e-06	3.7782287722912739e-08	1	false	DILUPBiCGStab	5.2561888665669508e-05	3.0528033046095922e-07	1	true	DILUPBiCGStab	1.5283506277659470e-05	7.2590472237843366e-08	1	true	GAMG	8.4402073688846313e-04	7.2059394610608430e-06	8	true
62                      	DILUPBiCGStab	2.7639737062426591e-06	1.0899100624581959e-08	1	5.5937774867156475e-04	3.1488834400157130e-06	1	6.3448751103928172e-06	3.7343758818465142e-08	1	false	DILUPBiCGStab	5.2697931622742920e-05	3.0138957196927098e-07	1	true	DILUPBiCGStab	1.5067019759574510e-05	7.0797233244946291e-08	1	true	GAMG	7.8259856971834088e-04	6.1013211501756011e-06	9	true
63                      	DILUPBiCGStab	2.1452670311278308e-06	9.8222326663198739e-09	1	5.7978622810852002e-04	3.2054371348719032e-06	1	6.3008416327555383e-06	3.6754961630209683e-08	1	false	DILUPBiCGStab	5.2717560650045727e-05	2.9580234973128281e-07	1	true	DILUPBiCGStab	1.4725219664990940e-05	6.7934367695297489e-08	1	true	GAMG	7.8371142342423109e-04	7.5116696405389793e-06	8	true
64                      	DILUPBiCGStab	1.8126659664605251e-06	9.2743489884003086e-09	1	6.0078683292009603e-04	3.3075958774046159e-06	1	6.2282518145764737e-06	3.5960593287853188e-08	1	false	DILUPBiCGStab	5.2494854739589148e-05	2.8785722825911049e-07	1	true	DILUPBiCGStab	1.4374680532866140e-05	6.6202793090986986e-08	1	true	GAMG	7.7019600702475850e-04	7.2872240019616734e-06	8	true
65                      	DILUPBiCGStab	2.1115166842237772e-06	9.5580930205690240e-09	1	6.2609905048801749e-04	3.4621327588432131e-06	1	6.1417920148515572e-06	3.4972682274211057e-08	1	false	DILUPBiCGStab	5.2018310326385617e-05	2.7778611152728990e-07	1	true	DILUPBiCGStab	1.3909684418162190e-05	6.3821007439395878e-08	1	true	GAMG	7.2356726375997636e-04	6.2096712423670233e-06	8	true
66                      	DILUPBiCGStab	2.3125835037237660e-06	9.3281829839281699e-09	1	6.5976874615076729e-04	3.6497140719513178e-06	1	6.0621148113768301e-06	3.3870493692558867e-08	1	false	DILUPBiCGStab	5.1357567426362478e-05	2.6601336392035631e-07	1	true	DILUPBiCGStab	1.3806931095493310e-05	6.2268098237368487e-08	1	true	GAMG	6.6582320067617908e-04	5.3163377145609413e-06	8	true
67                      	DILUPBiCGStab	2.1842085256003749e-06	8.8445225239887249e-09	1	7.0553992102581208e-04	3.8518194454078644e-06	1	6.0040912184890082e-06	3.2793948109520208e-08	1	false	DILUPBiCGStab	5.0625889936242948e-05	2.5328721146347791e-07	1	true	DILUPBiCGStab	1.3489812048154030e-05	6.0021315339289393e-08	1	true	GAMG	6.2540204093607978e-04	4.5235942651082288e-06	9	true
68                      	DILUPBiCGStab	1.9328672833317228e-06	8.5535849572048069e-09	1	7.6543284189555796e-04	4.0899053873029182e-06	1	5.9768000786506252e-06	3.1854055787971679e-08	1	false	DILUPBiCGStab	4.9928964527039483e-05	2.4007219822886188e-07	1	true	DILUPBiCGStab	1.3181338273333599e-05	5.8663546853530612e-08	1	true	GAMG	6.2785346959984560e-04	4.4954081154212973e-06	9	true
69                      	DILUPBiCGStab	1.8317028643964859e-06	8.3560972465651549e-09	1	8.4234120719005952e-04	4.4000006894314054e-06	1	5.9771471571382627e-06	3.1086427487213389e-08	1	false	DILUPBiCGStab	4.9336740212456152e-05	2.2662586155819051e-07	1	true	DILUPBiCGStab	1.2837823891784250e-05	5.6873226938030618e-08	1	true	GAMG	6.2729499336831190e-04	5.1347787122434858e-06	8	true
70                      	DILUPBiCGStab	2.0587827410796080e-06	8.4440430330425169e-09	1	9.3910339664995284e-04	4.8336006554948156e-06	1	5.9925056419411902e-06	3.0474019347003757e-08	1	false	DILUPBiCGStab	4.8882178323741723e-05	2.1353656265043550e-07	1	true	DILUPBiCGStab	1.2742091546019889e-05	5.5637617463750557e-08	1	true	GAMG	6.0256187820745505e-04	4.7791834404281006e-06	8	true
71                      	DILUPBiCGStab	2.1350498815116239e-06	8.1462042258487948e-09	1	1.0629679720977800e-03	5.4296761838389772e-06	1	6.0008721312180960e-06	2.9948548915993877e-08	1	false	DILUPBiCGStab	4.8561424062949589e-05	2.0074352980668599e-07	1	true	DILUPBiCGStab	1.2482373092424531e-05	5.3856415803087117e-08	1	true	GAMG	5.6755296123033126e-04	4.4283150435510856e-06	8	true
72                      	DILUPBiCGStab	1.9827932527817258e-06	7.6233311808442618e-09	1	1.2266145017353659e-03	6.2191426657995224e-06	1	5.9941046921568201e-06	2.9456022557610421e-08	1	false	DILUPBiCGStab	4.8311738440839433e-05	1.8853089057245539e-07	1	true	DILUPBiCGStab	1.2252034515174380e-05	5.2591217551693639e-08	1	true	GAMG	5.4143723852643089e-04	4.4833858011871034e-06	8	true
73                      	DILUPBiCGStab	1.6964137727625439e-06	7.0725125369348328e-09	1	1.4566372629766400e-03	7.3003661032022130e-06	1	5.9710525896290026e-06	2.8957565236323589e-08	1	false	DILUPBiCGStab	4.8049307622879257e-05	1.7696039834650941e-07	1	true	DILUPBiCGStab	1.1939364170263779e-05	5.0979110582280747e-08	1	true	GAMG	5.4108767196374419e-04	4.4525503610080529e-06	8	true
74                      	DILUPBiCGStab	1.4573366681211450e-06	6.6997892027948293e-09	1	1.8075252707717090e-03	8.9118876379080677e-06	1	5.9416846138576668e-06	2.8427320156475080e-08	1	false	DILUPBiCGStab	4.7713636872177542e-05	1.6638894256402751e-07	1	true	DILUPBiCGStab	1.1888275373787560e-05	4.9740072708041601e-08	1	true	GAMG	5.3980182666951975e-04	4.1433925967339530e-06	8	true
75                      	DILUPBiCGStab	1.5013675535659081e-06	6.6844663453625610e-09	1	2.3981565823460969e-03	1.1599241957748440e-05	1	5.9137359817894929e-06	2.7870786442213859e-08	1	false	DILUPBiCGStab	4.7282871303703943e-05	1.5644841411764000e-07	1	true	DILUPBiCGStab	1.1698211133010371e-05	4.8215820344253548e-08	1	true	GAMG	5.2508913161938625e-04	3.8593414622106117e-06	8	true
76                      	DILUPBiCGStab	1.6221412083227459e-06	6.7252798987383301e-09	1	3.5275707572432072e-03	1.6777897935237740e-05	1	5.8981678434104578e-06	2.7332347663586159e-08	1	false	DILUPBiCGStab	4.6777777642915342e-05	1.4736595615592071e-07	1	true	DILUPBiCGStab	1.1491259977057361e-05	4.6944109820592581e-08	1	true	GAMG	5.0381807764015641e-04	3.6356612790010762e-06	8	true