# Force and moment coefficients
# dragDir               : (1.0000000000000000e+00 0.0000000000000000e+00 0.0000000000000000e+00)
# sideDir               : (0.0000000000000000e+00 0.0000000000000000e+00 -1.0000000000000000e+00)
# liftDir               : (0.0000000000000000e+00 1.0000000000000000e+00 0.0000000000000000e+00)
# rollAxis              : (1.0000000000000000e+00 0.0000000000000000e+00 0.0000000000000000e+00)
# pitchAxis             : (0.0000000000000000e+00 0.0000000000000000e+00 -1.0000000000000000e+00)
# yawAxis               : (0.0000000000000000e+00 1.0000000000000000e+00 0.0000000000000000e+00)
# magUInf               : 2.3659999999999999e+02
# lRef                  : 1.0330000000000000e-01
# Aref                  : 6.7799999999999996e-03
# CofR                  : (3.5000000000000003e-02 0.0000000000000000e+00 0.0000000000000000e+00)
#
# Time                  	Cd                      	Cd(f)                   	Cd(r)                   	Cl                      	Cl(f)                   	Cl(r)                   	CmPitch                 	CmRoll                  	CmYaw                   	Cs                      	Cs(f)                   	Cs(r)                   
1                       	1.5245722222585434e-01	7.9509460308733390e-02	7.2947761917120962e-02	4.7147523476838578e-05	-2.2398570141784926e-03	2.2870045376553313e-03	-2.2634307759169122e-03	3.2808491958062078e-03	6.9596983075742591e-04	2.3399878158334414e-01	1.1769536062242950e-01	1.1630342096091464e-01
2                       	2.6703850261995293e-01	1.3707428994908424e-01	1.2996421267086869e-01	9.7834816670384217e-05	-3.9250957047071997e-03	4.0229305213775836e-03	-3.9740131130423916e-03	3.5550386391077732e-03	9.4830912428579724e-03	2.5594934056358221e-01	1.3745776152464909e-01	1.1849157903893313e-01
3                       	2.5702942290220437e-01	1.3197286422667887e-01	1.2505655867552545e-01	1.9445827547503295e-04	-3.6410007932723035e-03	3.8354590687473362e-03	-3.7382299310098200e-03	3.4581527755767130e-03	9.3070365704533559e-03	2.5167698116885240e-01	1.3514552715487957e-01	1.1653145401397286e-01
4                       	1.6880425937220331e-01	8.7458027566972005e-02	8.1346231805231303e-02	3.0221666782743019e-04	-2.1057760192983799e-03	2.4079926871258097e-03	-2.2568843532120948e-03	3.0558978808703460e-03	3.9079779825687694e-03	2.2700771878809425e-01	1.1741183737661590e-01	1.0959588141147836e-01
5                       	5.3443531246511085e-02	2.9307909638504485e-02	2.4135621608006599e-02	3.1199983720080410e-04	-2.0863748123500322e-04	5.2063731843580735e-04	-3.6463739983540530e-04	2.5861440152489439e-03	-3.3620702823678700e-03	1.9503190693833317e-01	9.4153883186798709e-02	1.0087802375153446e-01
6                       	-4.3235335502503587e-02	-1.9337817051029771e-02	-2.3897518451473816e-02	1.6389967078740434e-04	1.2153269742669311e-03	-1.0514273034795271e-03	1.1333771388732290e-03	2.2798507002220227e-03	-9.5991743853822229e-03	1.6916574061119552e-01	7.4983695920215546e-02	9.4182044690979988e-02
7                       	-9.2468911840140555e-02	-4.3969359986072779e-02	-4.8499551854067777e-02	-1.4855567345992130e-04	1.7249104275120139e-03	-1.8734661009719355e-03	1.7991882642419748e-03	2.2650959339975000e-03	-1.3102617479924115e-02	1.5807358123157414e-01	6.5934173135862945e-02	9.2139408095711181e-02
8                       	-8.8549223783994213e-02	-4.1778384179113282e-02	-4.6770839604880939e-02	-5.3251195014891110e-04	1.3615809817179620e-03	-1.8940929318668732e-03	1.6278369567924176e-03	2.4962277128838303e-03	-1.3458214821147478e-02	1.6273954709753161e-01	6.7911558727618310e-02	9.4827988369913283e-02
9                       	-4.5945486549658188e-02	-2.0152395245874255e-02	-2.5793091303783929e-02	-8.2418926359575917e-04	4.6212002854940796e-04	-1.2863092921451670e-03	8.7421466034728749e-04	2.8203480289548362e-03	-1.1328529585153197e-02	1.7796821581998590e-01	7.7655578324839755e-02	1.0031263749514614e-01
10                      	1.1187075233184985e-02	8.7137520941326426e-03	2.4733231390523421e-03	-9.9791827197098413e-04	-5.3095016628596859e-04	-4.6696810568501554e-04	-3.1991030300476564e-05	3.1202144775401498e-03	-8.0217363638328664e-03	1.9568630545558929e-01	8.9821416363961779e-02	1.0586488909162751e-01
11                      	5.9935229766380806e-02	3.3256768936832014e-02	2.6678460829548788e-02	-1.0079984415161398e-03	-1.2166956957905934e-03	2.0869725427445358e-04	-7.1269647503252348e-04	3.2891540536416149e-03	-4.8713083990758604e-03	2.0888334597430655e-01	9.9570364588077415e-02	1.0931298138622914e-01
12                      	8.5608805866252496e-02	4.6105824419368932e-02	3.9502981446883564e-02	-9.2475667583215380e-04	-1.4352230182512608e-03	5.1046634241910696e-04	-9.7284468033518386e-04	3.3014214862426851e-03	-2.9075806383003174e-03	2.1403085740319286e-01	1.0410784806329612e-01	1.0992300933989675e-01
13                      	8.5270377862168401e-02	4.5838534085955722e-02	3.9431843776212672e-02	-8.4148219887887968e-04	-1.2353143072280500e-03	3.9383210834917029e-04	-8.1457320778861018e-04	3.2033451548715217e-03	-2.4825372807153918e-03	2.1130098936298597e-01	1.0316795740077760e-01	1.0813303196220837e-01
14                      	6.6011431497221967e-02	3.6078111443324595e-02	2.9933320053897372e-02	-8.4163550013202258e-04	-7.9797121277087315e-04	-4.3664287361149410e-05	-3.7715346270486192e-04	3.0723956947136125e-03	-3.3355990318022122e-03	2.0368249842186159e-01	9.8505650179128587e-02	1.0517684824273300e-01
15                      	3.9457904219485543e-02	2.2704070634794106e-02	1.6753833584691437e-02	-9.4458518928579695e-04	-3.5161616344138051e-04	-5.9296902584441639e-04	1.2067643120151800e-04	2.9751185250513350e-03	-4.8542828889286994e-03	1.9519641308675365e-01	9.2743923654448127e-02	1.0245248943230552e-01
16                      	1.6615359724831066e-02	1.1266986828890227e-02	5.3483728959408394e-03	-1.1583153417186621e-03	-8.8218768286102422e-05	-1.0700965734325597e-03	4.9093890257322862e-04	2.9593069664746933e-03	-6.3658052043772135e-03	1.8909910406196168e-01	8.8183746826603626e-02	1.0091535723535805e-01
17                      	4.3760235876367784e-03	5.2149624457068907e-03	-8.3893885807011259e-04	-1.4197309688468108e-03	-8.3920063784044964e-05	-1.3358109050627658e-03	6.2594542063936040e-04	3.0269506518885020e-03	-7.3603073826770298e-03	1.8698677624871485e-01	8.6133080741680385e-02	1.0085369550703446e-01
18                      	4.1502972299927512e-03	5.2124804096458435e-03	-1.0621831796530927e-03	-1.6296205654164220e-03	-2.6956663743289873e-04	-1.3600539279835233e-03	5.4524364527531229e-04	3.1373317946494683e-03	-7.6270578462435089e-03	1.8859987880879114e-01	8.6672881558152073e-02	1.0192699725063907e-01
19                      	1.2869071232044005e-02	9.6703021819600950e-03	3.1987690500839099e-03	-1.7173230585443694e-03	-5.3100822731097486e-04	-1.1863148312333946e-03	3.2765330196120985e-04	3.2357665659380926e-03	-7.2740090073497004e-03	1.9247879803964477e-01	8.8965390012472681e-02	1.0351340802717209e-01
20                      	2.5130969515212528e-02	1.5859210405708826e-02	9.2717591095037005e-03	-1.6837712729334863e-03	-7.4748636884822963e-04	-9.3628490408525665e-04	9.4399267618513506e-05	3.2937256481025638e-03	-6.5900809182052105e-03	1.9671493101223589e-01	9.1767384587912740e-02	1.0494754642432316e-01
21                      	3.5728070616217925e-02	2.1158642622620939e-02	1.4569427993596987e-02	-1.5523145767014032e-03	-8.3928820931694452e-04	-7.1302636738445864e-04	-6.3130920966242898e-05	3.2946073145119757e-03	-5.9041751645825874e-03	1.9978367168979103e-01	9.3987660680312932e-02	1.0579601100947811e-01
22                      	4.1433667110573100e-02	2.3963022365670304e-02	1.7470644744902796e-02	-1.3783280120001316e-03	-8.0607414083285248e-04	-5.7225387116727915e-04	-1.1691013483278662e-04	3.2461888103837550e-03	-5.4561784948505927e-03	2.0094213865155225e-01	9.5014890830925527e-02	1.0592724782062674e-01
23                      	4.1576535610324719e-02	2.3976040651037315e-02	1.7600494959287404e-02	-1.2526676990048608e-03	-7.1885665921666946e-04	-5.3381103978819133e-04	-9.2522809714239051e-05	3.1877728458749536e-03	-5.3433592644774467e-03	2.0032467361845246e-01	9.4818977544748773e-02	1.0550569607370368e-01
24                      	3.7584112483844245e-02	2.1925375782000968e-02	1.5658736701843277e-02	-1.1804764101969135e-03	-6.1786706627502076e-04	-5.6260934392189275e-04	-2.7628861176564058e-05	3.1333195400788448e-03	-5.5195054960226883e-03	1.9863333120891008e-01	9.3797160108432365e-02	1.0483617110047773e-01
25                      	3.1988054863427720e-02	1.9088779355758350e-02	1.2899275507669370e-02	-1.1576980801485239e-03	-5.4792267857257178e-04	-6.0977540157595219e-04	3.0926361501690218e-05	3.0947519240444904e-03	-5.8476648348795030e-03	1.9677451851422245e-01	9.2539594422231711e-02	1.0423492409199073e-01
26                      	2.7155460897071843e-02	1.6650010481519123e-02	1.0505450415552722e-02	-1.1417895931673636e-03	-5.2429778356771306e-04	-6.1749180959965052e-04	4.6597013015968709e-05	3.0722800329832010e-03	-6.1772189394657170e-03	1.9547679907869620e-01	9.1561180599882372e-02	1.0391561847881381e-01
27                      	2.4526578812916294e-02	1.5330462493394771e-02	9.1961163195215245e-03	-1.1194920147434256e-03	-5.4864765240824817e-04	-5.7084436233517742e-04	1.1098354963464602e-05	3.0671730869366240e-03	-6.3979552370785099e-03	1.9506509856948154e-01	9.1134594047662248e-02	1.0393050452181928e-01
28                      	2.4405939672512502e-02	1.5260878513344827e-02	9.1450611591676750e-03	-1.0456802037060882e-03	-5.8777515110966863e-04	-4.5790505259641972e-04	-6.4935049256624442e-05	3.0579086770885756e-03	-6.4680710620516170e-03	1.9547128102943875e-01	9.1267569452667757e-02	1.0420371157677100e-01
29                      	2.6147114857554693e-02	1.6106968680962862e-02	1.0040146176591831e-02	-9.0624489324524671e-04	-6.0893729361003997e-04	-2.9730759963520674e-04	-1.5581484698741664e-04	3.0334112521855144e-03	-6.4082511791889825e-03	1.9636033900412100e-01	9.1771918322871529e-02	1.0458842068124949e-01
30                      	2.8626796346391238e-02	1.7305950891531238e-02	1.1320845454860000e-02	-7.1472827802461687e-04	-5.9181450622583292e-04	-1.2291377179878400e-04	-2.3445036721352441e-04	2.9925527183356183e-03	-6.2805795640091620e-03	1.9731313557557975e-01	9.2375988223780708e-02	1.0493714735179904e-01
31                      	3.0770869667845653e-02	1.8330133477449034e-02	1.2440736190396619e-02	-5.1890247507109240e-04	-5.5203564564477580e-04	3.3133170573683361e-05	-2.9258440810922960e-04	2.9446986435262075e-03	-6.1521809447587419e-03	1.9798957685853399e-01	9.2842607484508261e-02	1.0514696937402573e-01
32                      	3.1920219107345070e-02	1.8858647272285100e-02	1.3061571835059972e-02	-3.4948457973509815e-04	-5.0817209478238321e-04	1.5868751504728498e-04	-3.3342980491483405e-04	2.8985377186125636e-03	-6.0719966234900509e-03	1.9824181602323779e-01	9.3048911388128833e-02	1.0519290463510896e-01
33                      	3.1931813197386111e-02	1.8825255930548457e-02	1.3106557266837651e-02	-2.1609521640625652e-04	-4.7203932527915756e-04	2.5594410887290101e-04	-3.6399171707602928e-04	2.8593493318554036e-03	-6.0590120722400507e-03	1.9811321640765672e-01	9.2997596131588325e-02	1.0511562027606841e-01
34                      	3.1099816428049303e-02	1.8374539771711197e-02	1.2725276656338103e-02	-1.0583387741975164e-04	-4.4620737605350269e-04	3.4037349863375103e-04	-3.9329043734362683e-04	2.8246315576865486e-03	-6.1039609366397192e-03	1.9776795062555144e-01	9.2780014376135991e-02	1.0498793624941544e-01
35                      	2.9935674042171980e-02	1.7755557261900159e-02	1.2180116780271824e-02	7.1918908463806538e-06	-4.2198054691008126e-04	4.2917243775646190e-04	-4.2557649233327158e-04	2.7877202408141677e-03	-6.1789391452458948e-03	1.9739981056389588e-01	9.2520966136702049e-02	1.0487884442719383e-01
36                      	2.8932571171838083e-02	1.7216732897331413e-02	1.1715838274506667e-02	1.2691872770424480e-04	-3.9691655296727281e-04	5.2383528067151766e-04	-4.6037591681939521e-04	2.7504473114123734e-03	-6.2523363790803312e-03	1.9715737513726148e-01	9.2326351189550418e-02	1.0483102394771107e-01
37                      	2.8399398712919244e-02	1.6912751806692446e-02	1.1486646906226798e-02	2.4449307822726611e-04	-3.7342854780543478e-04	6.1792162603270084e-04	-4.9567508691906786e-04	2.7130524502328242e-03	-6.3009408580747429e-03	1.9710186315760667e-01	9.2249990720728578e-02	1.0485187243687807e-01
38                      	2.8404864550928513e-02	1.6878732273439039e-02	1.1526132277489472e-02	3.5694693829419003e-04	-3.4482323815039346e-04	7.0177017644458355e-04	-5.2329670729748851e-04	2.6762999979747844e-03	-6.3158028093771986e-03	1.9721063303990291e-01	9.2289513710574270e-02	1.0492111932932865e-01
39                      	2.8810956396537975e-02	1.7050862532712412e-02	1.1760093863825566e-02	4.5099217642251033e-04	-3.1143719352406030e-04	7.6242936994657057e-04	-5.3693328173531549e-04	2.6453843344434241e-03	-6.3023689849484709e-03	1.9740719039451191e-01	9.2401226212307466e-02	1.0500596418220443e-01
40                      	2.9376409922033119e-02	1.7316628860054514e-02	1.2059781061978605e-02	5.0558746578477072e-04	-2.8284125078577202e-04	7.8842871657054279e-04	-5.3563498367815738e-04	2.6284238990379538e-03	-6.2746822408768898e-03	1.9760361838707718e-01	9.2527126952661701e-02	1.0507649143441547e-01
41                      	2.9867092383900964e-02	1.7562147856118843e-02	1.2304944527782124e-02	5.1262943196949751e-04	-2.6788146581396794e-04	7.8051089778346551e-04	-5.2419618179871670e-04	2.6286016641683591e-03	-6.2481442382662268e-03	1.9773625969766651e-01	9.2619985610567029e-02	1.0511627408709949e-01
42                      	3.0134520853430744e-02	1.7707278768635874e-02	1.2427242084794871e-02	4.8944879493260387e-04	-2.6266179386478866e-04	7.5211058879739263e-04	-5.0738619133109059e-04	2.6400183419205015e-03	-6.2338841944457974e-03	1.9778157072800331e-01	9.2656901169555855e-02	1.0512466955844744e-01
43                      	3.0145007999572287e-02	1.7727627594848812e-02	1.2417380404723474e-02	4.5533426595363872e-04	-2.6178356606886975e-04	7.1711783202250848e-04	-4.8945069904568917e-04	2.6551235950626698e-03	-6.2359619521941559e-03	1.9775451051473411e-01	9.2641293305172887e-02	1.0511321720956121e-01
44                      	2.9963048954777017e-02	1.7648849367430781e-02	1.2314199587346237e-02	4.2701230870241741e-04	-2.5978098457057566e-04	6.8679329327299302e-04	-4.7328713892178437e-04	2.6673248900422712e-03	-6.2517761353517434e-03	1.9769149585107859e-01	9.2593971790187551e-02	1.0509752406089105e-01
45                      	2.9703549504636533e-02	1.7525151954002435e-02	1.2178397550634098e-02	4.1022229433480676e-04	-2.5522378984649946e-04	6.6544608418130622e-04	-4.6033493701390284e-04	2.6733772016841687e-03	-6.2743453250578259e-03	1.9763197687607226e-01	9.2541643112978300e-02	1.0509033376309396e-01
46                      	2.9478447146797343e-02	1.7414854429391686e-02	1.2063592717405657e-02	3.9810666104411188e-04	-2.4961809609962837e-04	6.4772475714374020e-04	-4.4867142662168431e-04	2.6756308559930135e-03	-6.2961071644664843e-03	1.9760323085790710e-01	9.2505508264487057e-02	1.0509772259342004e-01
47                      	2.9358647481155391e-02	1.7356922596331929e-02	1.2001724884823463e-02	3.8153773776540117e-04	-2.4526544652849321e-04	6.2680318429389438e-04	-4.3603431541119377e-04	2.6775988557542320e-03	-6.3116187310872113e-03	1.9761360438559600e-01	9.2495183461710803e-02	1.0511842092388521e-01
48                      	2.9360293859607339e-02	1.7364317168776844e-02	1.1995976690830495e-02	3.4867639752057101e-04	-2.4575382656193514e-04	5.9443022408250620e-04	-4.2009202532222061e-04	2.6841702389731738e-03	-6.3190574675967056e-03	1.9765413491927791e-01	9.2508009992042242e-02	1.0514612492723566e-01
49                      	2.9453090247538956e-02	1.7426531681677713e-02	1.2026558565861243e-02	2.8999274109815841e-04	-2.5454612937757514e-04	5.4453887047573350e-04	-3.9954249992665435e-04	2.6999865579082354e-03	-6.3199838468658304e-03	1.9770699386086660e-01	9.2533513083567470e-02	1.0517348077729913e-01
50                      	2.9583301787226148e-02	1.7515799177667650e-02	1.2067502609558498e-02	2.1049356435791014e-04	-2.7100749493084232e-04	4.8150105928875241e-04	-3.7625427710979737e-04	2.7241482840545759e-03	-6.3179177035918663e-03	1.9775440628687538e-01	9.2559285439845831e-02	1.0519512084702955e-01
51                      	2.9697601899985947e-02	1.7600679313907595e-02	1.2096922586078349e-02	1.2413801057775594e-04	-2.9147024924300200e-04	4.1560825982075799e-04	-3.5353925453187999e-04	2.7518783639146247e-03	-6.3165998526280125e-03	1.9778482908785919e-01	9.2575814691301578e-02	1.0520901439655761e-01
52                      	2.9762011825604621e-02	1.7657873007264235e-02	1.2104138818340382e-02	4.7459689594330024e-05	-3.1024723099646483e-04	3.5770692059079485e-04	-3.3397707579362984e-04	2.7768670944619267e-03	-6.3185271223734291e-03	1.9779599674556197e-01	9.2579471250407552e-02	1.0521652549515441e-01
53                      	2.9768577673506824e-02	1.7679310293428063e-02	1.2089267380078763e-02	-9.0968360632213966e-06	-3.2327054378725292e-04	3.1417370772403156e-04	-3.1872212575564224e-04	2.7950214566746503e-03	-6.3245341949321535e-03	1.9779285511704139e-01	9.2571893363588550e-02	1.0522096175345286e-01
54                      	2.9731348302052513e-02	1.7670877121873829e-02	1.2060471180178682e-02	-4.3257355691022652e-05	-3.2960584540411863e-04	2.8634848971309588e-04	-3.0797716755860726e-04	2.8052029708475748e-03	-6.3338117658889217e-03	1.9778432088415970e-01	9.2558348676190921e-02	1.0522597220796877e-01
55                      	2.9675489237441469e-02	1.7646848295333827e-02	1.2028640942107642e-02	-5.9324624034520350e-05	-3.3023103339388022e-04	2.7090640935935984e-04	-3.0056872137662003e-04	2.8091036766130922e-03	-6.3446302442411442e-03	1.9777914166405508e-01	9.2544940587786381e-02	1.0523420107626869e-01
56                      	2.9625478447842642e-02	1.7623277920598954e-02	1.2002200527243689e-02	-6.7365978178280213e-05	-3.2853319362965972e-04	2.6116721545137948e-04	-2.9485020454051960e-04	2.8105386966776323e-03	-6.3552196248570936e-03	1.9778268492040338e-01	9.2536122835344597e-02	1.0524656208505878e-01
57                      	2.9596794611871736e-02	1.7611970091587513e-02	1.1984824520284220e-02	-7.8283117538393212e-05	-3.2905122254614369e-04	2.5076810500775050e-04	-2.8990966377694707e-04	2.8135727856516482e-03	-6.3643986596326309e-03	1.9779593856270800e-01	9.2533570621721364e-02	1.0526236794098663e-01
58                      	2.9592916331285406e-02	1.7616430611563049e-02	1.1976485719722357e-02	-9.7694606417539045e-05	-3.3463786364203423e-04	2.3694325722449519e-04	-2.8579056043326470e-04	2.8199724459203484e-03	-6.3718876109446427e-03	1.9781590339580535e-01	9.2536064086958025e-02	1.0527983930884731e-01
59                      	2.9607550956245385e-02	1.7632300235755637e-02	1.1975250720489749e-02	-1.2281130020561369e-04	-3.4482656356701961e-04	2.2201526336140589e-04	-2.8342091346421274e-04	2.8285247576329440e-03	-6.3781518094241617e-03	1.9783762805563318e-01	9.2540662218392439e-02	1.0529696583724074e-01
60                      	2.9629361740336618e-02	1.7651003478778834e-02	1.1978358261557786e-02	-1.4549064674008924e-04	-3.5689864823438200e-04	2.1140800149429276e-04	-2.8415332486433735e-04	2.8363226086105236e-03	-6.3840178557844508e-03	1.9785632734119574e-01	9.2544145814813419e-02	1.0531218152638230e-01
61                      	2.9647649981002375e-02	1.7664247578486374e-02	1.1983402402516002e-02	-1.5697669152525047e-04	-3.6715080966681765e-04	2.1017411814156718e-04	-2.8866246390419237e-04	2.8404225879851870e-03	-6.3902683673096386e-03	1.9786923936951356e-01	9.2544351317447135e-02	1.0532488805206643e-01
62                      	2.9655766556925988e-02	1.7666834291921400e-02	1.1988932265004592e-02	-1.5173722663403577e-04	-3.7270030482279640e-04	2.2096307818876066e-04	-2.9683169150577853e-04	2.8389510134584038e-03	-6.3973664838489703e-03	1.9787606912474909e-01	9.2540668078525581e-02	1.0533540104622352e-01
63                      	2.9652486445796648e-02	1.7658150187241591e-02	1.1994336258555055e-02	-1.2918357783344074e-04	-3.7205766747962042e-04	2.4287408964617969e-04	-3.0746587856290004e-04	2.8319069643432692e-03	-6.4053580888059390e-03	1.9787867097526998e-01	9.2533977398829056e-02	1.0534469357644094e-01
64                      	2.9640871990614430e-02	1.7641343248339728e-02	1.1999528742274701e-02	-9.3621927956630404e-05	-3.6551912614756030e-04	2.7189719819092992e-04	-3.1870816216924511e-04	2.8209072530325134e-03	-6.4139596943475763e-03	1.9788000734845099e-01	9.2526043979877917e-02	1.0535396336857307e-01
65                      	2.9625873098470108e-02	1.7621604390792876e-02	1.2004268707677233e-02	-5.3028766424501705e-05	-3.5542393533504347e-04	3.0239516891054181e-04	-3.2890955212279264e-04	2.8086678415578212e-03	-6.4227833672359626e-03	1.9788291033867436e-01	9.2518671802101216e-02	1.0536423853657315e-01
66                      	2.9612124841307888e-02	1.7603862713617767e-02	1.2008262127690125e-02	-1.5654059658825233e-05	-3.4493507709172145e-04	3.2928101743289628e-04	-3.3710804726230889e-04	2.7978002929638203e-03	-6.4315037095711413e-03	1.9788921917098987e-01	9.2513105875923790e-02	1.0537611329506609e-01
67                      	2.9602198878826261e-02	1.7590905788350181e-02	1.2011293090476081e-02	1.3217697351631327e-05	-3.3654362113466125e-04	3.4976131848629260e-04	-3.4315246981047692e-04	2.7898063489370504e-03	-6.4399699553803983e-03	1.9789901035610624e-01	9.2509535222672731e-02	1.0538947513343351e-01
68                      	2.9596496668861938e-02	1.7582918242809838e-02	1.2013578426052104e-02	3.2575516066189130e-05	-3.3139927257752139e-04	3.6397478864371054e-04	-3.4768703061061599e-04	2.7846699083788678e-03	-6.4482026447248361e-03	1.9791102571874644e-01	9.2507310214648392e-02	1.0540371550409806e-01
69                      	2.9593625645586062e-02	1.7577991232012757e-02	1.2015634413573301e-02	4.5271041537381893e-05	-3.2906785136660325e-04	3.7433889290398512e-04	-3.5170337213529418e-04	2.7811784092197285e-03	-6.4563455147223043e-03	1.9792330019344262e-01	9.2505304581999001e-02	1.0541799561144362e-01
70                      	2.9591564899896575e-02	1.7573724264003266e-02	1.2017840635893309e-02	5.5604571070351657e-05	-3.2810668045035816e-04	3.8371125152070987e-04	-3.5590896598553402e-04	2.7779418140549787e-03	-6.4645828257011706e-03	1.9793403033894066e-01	9.2502432343769161e-02	1.0543159799517152e-01
71                      	2.9588380395235932e-02	1.7568232651888015e-02	1.2020147743347916e-02	6.6953719750306197e-05	-3.2697760499607510e-04	3.9393132474638135e-04	-3.6045446487122822e-04	2.7740424542700482e-03	-6.4730564522551106e-03	1.9794207500945590e-01	9.2497981052472839e-02	1.0544409395698306e-01
72                      	2.9583090914600207e-02	1.7560918298048296e-02	1.2022172616551913e-02	8.0528181183186888e-05	-3.2465312534133849e-04	4.0518130652452539e-04	-3.6491721593293194e-04	2.7693728407481933e-03	-6.4818103304325990e-03	1.9794734656082516e-01	9.2491862949979992e-02	1.0545548361084517e-01
73                      	2.9575741811731622e-02	1.7552249088235206e-02	1.2023492723496414e-02	9.5628122490357118e-05	-3.2074501241714223e-04	4.1637313490749939e-04	-3.6855907366232084e-04	2.7643781823693966e-03	-6.4908046595881265e-03	1.9795078702744925e-01	9.2484588854136504e-02	1.0546619817331275e-01
74                      	2.9566933838094472e-02	1.7543289894135210e-02	1.2023643943959262e-02	1.1006640617643046e-04	-3.1561126915812871e-04	4.2567767533455917e-04	-3.7064447224634392e-04	2.7598229750879747e-03	-6.4999524651463639e-03	1.9795376604730100e-01	9.2476930558504145e-02	1.0547683548879686e-01
75                      	2.9557492725551214e-02	1.7535285733195655e-02	1.2022206992355558e-02	1.2098907037350855e-04	-3.1028276367192208e-04	4.3127183404543059e-04	-3.7077729885867634e-04	2.7565393704200494e-03	-6.5091664166893153e-03	1.9795753967974242e-01	9.2469603423181904e-02	1.0548793625656053e-01
76                      	2.9548191747447314e-02	1.7529187431451668e-02	1.2019004315995646e-02	1.2604799119181957e-04	-3.0600318759345916e-04	4.3205117878527871e-04	-3.6902718318936891e-04	2.7550915577280108e-03	-6.5183896806575627e-03	1.9796288262537318e-01	9.2463051632029031e-02	1.0549983099334415e-01
77                      	2.9539341282023415e-02	1.7525184318329400e-02	1.2014156963694017e-02	1.2452768123160716e-04	-3.0362831712315409e-04	4.2815599835476122e-04	-3.6589215773895768e-04	2.7555136773176909e-03	-6.5275971718922118e-03	1.9796977451215703e-01	9.2457290084186308e-02	1.0551248442797072e-01
78                      	2.9531002706957438e-02	1.7522974871702544e-02	1.2008027835254894e-02	1.1731130919189777e-04	-3.0337791139476117e-04	4.2068922058665888e-04	-3.6203356599071002e-04	2.7574735182238257e-03	-6.5367984400500050e-03	1.9797759709759929e-01	9.2452000108749641e-02	1.0552559698884965e-01
79                      	2.9523015494516126e-02	1.7521898908928413e-02	1.2001116585587711e-02	1.0636459008699161e-04	-3.0487803293044067e-04	4.1124262301743233e-04	-3.5806032797393647e-04	2.7603911616703512e-03	-6.5460194978027002e-03	1.9798540419560376e-01	9.2446682599999164e-02	1.0553872159560458e-01
80                      	2.9515071170585491e-02	1.7521218999485905e-02	1.1993852171099585e-02	9.3909275002731035e-05	-3.0738288676159572e-04	4.0129216176432679e-04	-3.5433752426296126e-04	2.7636834141931601e-03	-6.5552813149629312e-03	1.9799224867275683e-01	9.2440843021415489e-02	1.0555140565134134e-01
81                      	2.9506969627993162e-02	1.7520486325754980e-02	1.1986483302238183e-02	8.1551257832762592e-05	-3.1014794420526702e-04	3.9169920203802955e-04	-3.5092357312164829e-04	2.7670015117583972e-03	-6.5645949236259951e-03	1.9799760545230521e-01	9.2434207802526605e-02	1.0556339764977860e-01
82                      	2.9498583098831875e-02	1.7519554841832659e-02	1.1979028256999215e-02	6.9908764332162349e-05	-3.1270829257364801e-04	3.8261705690581044e-04	-3.4766267473972925e-04	2.7702632924167209e-03	-6.5739609199680984e-03	1.9800147566052234e-01	9.2426776910293079e-02	1.0557469875022928e-01
83                      	2.9489992922771380e-02	1.7518522142861093e-02	1.1971470779910284e-02	5.8946575444927021e-05	-3.1489373739913753e-04	3.7384031284406458e-04	-3.4436702512160108e-04	2.7735256814754063e-03	-6.5833756323763325e-03	1.9800438950271620e-01	9.2418819118981768e-02	1.0558557038373442e-01
84                      	2.9481205427699272e-02	1.7517482692585729e-02	1.1963722735113541e-02	4.8158942850221314e-05	-3.1684916818825311e-04	3.6500811103847442e-04	-3.4092863961336374e-04	2.7768799787360947e-03	-6.5928355945857869e-03	1.9800701683179334e-01	9.2410672821310880e-02	1.0559634401048246e-01
85                      	2.9472318322400531e-02	1.7516548301927736e-02	1.1955770020472795e-02	3.7050899056533105e-05	-3.1888820350605091e-04	3.5593910256258402e-04	-3.3741365303431749e-04	2.7803891407274721e-03	-6.6023450439150148e-03	1.9801002190997852e-01	9.2402665911074239e-02	1.0560735599890426e-01
86                      	2.9463428460194837e-02	1.7515730883668656e-02	1.1947697576526181e-02	2.5490262703767738e-05	-3.2132278432597507e-04	3.4681304702974280e-04	-3.3406791567785891e-04	2.7840166535712365e-03	-6.6119049967170128e-03	1.9801376383196484e-01	9.2394976919265404e-02	1.0561878691269942e-01
87                      	2.9454522783636715e-02	1.7514830170582345e-02	1.1939692613054368e-02	1.3923896932937904e-05	-3.2425259493903957e-04	3.3817649187197743e-04	-3.3121454340550850e-04	2.7875687787639884e-03	-6.6215095917332633e-03	1.9801817053264101e-01	9.2387575674587247e-02	1.0563059485805378e-01
88                      	2.9445722030421093e-02	1.7513698172766486e-02	1.1932023857654609e-02	3.1176813194637407e-06	-3.2758431230022665e-04	3.3070199361969046e-04	-3.2914315295995856e-04	2.7908371575559375e-03	-6.6311374980232880e-03	1.9802290532293051e-01	9.2380315163441973e-02	1.0564259015948856e-01
89                      	2.9437113926858705e-02	1.7512176944250932e-02	1.1924936982607775e-02	-6.0648781650705532e-06	-3.3099569257205423e-04	3.2493081440698360e-04	-3.2796325348951889e-04	2.7936199808215774e-03	-6.6407567708100810e-03	1.9802748625891950e-01	9.2372986358649670e-02	1.0565449990026983e-01
90                      	2.9428774502763676e-02	1.7510220277603010e-02	1.1918554225160662e-02	-1.3134018367439703e-05	-3.3418281858411210e-04	3.2104880021667238e-04	-3.2761580940039221e-04	2.7958330262211751e-03	-6.6503302610351677e-03	1.9803150090264537e-01	9.2365420190287525e-02	1.0566608071235785e-01
91                      	2.9420736855643625e-02	1.7507875721950120e-02	1.1912861133693504e-02	-1.8071891554418589e-05	-3.3696009233995965e-04	3.1888820078554111e-04	-3.2792414656275038e-04	2.7975072941283084e-03	-6.6598345900113782e-03	1.9803476820108187e-01	9.2357549510529574e-02	1.0567721869055231e-01
92                      	2.9413008520720256e-02	1.7505244268840751e-02	1.1907764251879505e-02	-2.1179482117543846e-05	-3.3926023823311724e-04	3.1808075611557330e-04	-3.2867049717434524e-04	2.7987400084806234e-03	-6.6692651741056758e-03	1.9803736377607517e-01	9.2349416713931917e-02	1.0568794706214325e-01
93                      	2.9405475304152398e-02	1.7502325861793303e-02	1.1903149442359090e-02	-2.2816908628067599e-05	-3.4107446755795413e-04	3.1825755892988654e-04	-3.2966601324392034e-04	2.7995882097171074e-03	-6.6786347093191131e-03	1.9803954136771423e-01	9.2341135974537997e-02	1.0569840539317622e-01
94                      	2.9398056586665933e-02	1.7499159042806259e-02	1.1898897543859676e-02	-2.3415186496773017e-05	-3.4250282793111723e-04	3.1908764143434424e-04	-3.3079523468273071e-04	2.8001307494732908e-03	-6.6879673101008889e-03	1.9804163143961692e-01	9.2332848409707569e-02	1.0570878302990935e-01