# Solver information    
# Time                  	U_solver                	Ux_initial              	Ux_final                	Ux_iters                	Uy_initial              	Uy_final                	Uy_iters                	Uz_initial              	Uz_final                	Uz_iters                	U_converged             	h_solver                	h_initial               	h_final                 	h_iters                 	h_converged             	nuTilda_solver          	nuTilda_initial         	nuTilda_final           	nuTilda_iters           	nuTilda_converged       	p_solver                	p_initial               	p_final                 	p_iters                 	p_converged             
1                       	DILUPBiCGStab	9.9901108861488863e-01	4.1078228464320318e-03	2	9.9999999999999944e-01	1.6717455951400660e-03	2	1.0000000000000000e+00	5.7608188827550730e-03	3	false	DILUPBiCGStab	9.9998055947356379e-01	4.1477914949832667e-03	2	true	DILUPBiCGStab	9.9999981084857470e-01	5.6571971170998039e-03	1	true	GAMG	9.9999999954138630e-01	4.3045902342214414e-03	15	true
2                       	DILUPBiCGStab	1.5654357162965590e-03	1.3271948287961029e-05	1	3.0295591817461290e-02	2.3286466468987830e-04	1	7.6902249114910561e-03	6.1695046710331068e-06	2	false	DILUPBiCGStab	1.8982112935055520e-03	1.9012891310162571e-06	2	true	DILUPBiCGStab	7.8660608639233653e-05	6.8922205695499192e-07	1	true	GAMG	4.3950076513517350e-01	3.7564811178460288e-03	12	true
3                       	DILUPBiCGStab	1.1360749472402059e-03	1.0396211244261390e-05	1	3.2779948551531553e-02	2.6313713640367832e-04	1	2.4739038169911401e-03	2.0077042697018960e-06	2	false	DILUPBiCGStab	3.7957818818212760e-03	5.1458681684171890e-06	2	true	DILUPBiCGStab	5.4530231155086047e-05	1.2906099064831050e-07	2	true	GAMG	6.9762980041400940e-02	5.6301988277484064e-04	9	true
4                       	DILUPBiCGStab	6.2969545573170942e-04	4.5433479192921291e-07	2	2.6470666518706290e-02	2.0885158825027330e-04	1	1.2110327038535470e-03	9.6881910540297709e-07	2	false	DILUPBiCGStab	6.1530708948039324e-03	8.7787391226394791e-06	2	true	DILUPBiCGStab	5.0073850593265683e-05	6.0161481654098446e-08	2	true	GAMG	4.4116572080073177e-02	2.9314613351216952e-04	11	true
5                       	DILUPBiCGStab	3.8224305058308551e-04	3.0120068806716932e-07	2	1.3705135427614680e-02	9.8988542795706082e-05	1	4.8256212674217938e-04	3.5284563380222901e-07	2	false	DILUPBiCGStab	6.8070934089650139e-03	8.3114750972292975e-06	2	true	DILUPBiCGStab	4.9867174253048408e-05	6.3213910480711292e-08	2	true	GAMG	2.4683138079952729e-02	1.8000247342822001e-04	11	true
6                       	DILUPBiCGStab	2.7588427475330702e-04	2.3312825552454810e-07	2	7.6654697315977887e-03	8.7139127056910844e-06	2	1.3417838358704561e-04	1.3724781714215419e-07	2	false	DILUPBiCGStab	3.2504586286431032e-03	2.6878972634664940e-05	1	true	DILUPBiCGStab	5.0378571149302987e-05	6.2953821037309732e-08	2	true	GAMG	1.3276358610638870e-02	1.0168555427640019e-04	11	true
7                       	DILUPBiCGStab	2.9929349962491279e-04	2.3305534143672629e-06	1	4.7619461080158479e-02	4.3181417499038073e-05	2	2.6158381292007871e-04	2.2204105759585429e-07	2	false	DILUPBiCGStab	1.4471901524341199e-03	1.2923505791765921e-05	1	true	DILUPBiCGStab	5.1159558850329060e-05	5.5018951535397269e-08	2	true	GAMG	1.2738803277485880e-02	1.0667733121831870e-04	9	true
8                       	DILUPBiCGStab	2.8782237126956188e-04	1.8074558744161179e-06	1	2.3897148746789009e-02	3.0122626273180200e-05	2	3.1368899610229582e-04	2.6582415385532419e-07	2	false	DILUPBiCGStab	8.6734330796789470e-04	6.9168644696987681e-07	2	true	DILUPBiCGStab	5.2783690912681172e-05	5.5501886279498102e-08	2	true	GAMG	1.6919392764819519e-02	1.0052348406684240e-04	10	true
9                       	DILUPBiCGStab	2.1718027848180091e-04	1.4057363969014790e-06	1	1.1285594765308221e-02	3.3200508585805632e-05	2	2.4681822537832608e-04	2.1673913563955660e-07	2	false	DILUPBiCGStab	6.7032349305261784e-04	5.5981813453940959e-07	2	true	DILUPBiCGStab	5.6365361875163068e-05	6.2701888021873361e-08	2	true	GAMG	2.2685183379630242e-02	1.7993651502860159e-04	10	true
10                      	DILUPBiCGStab	1.5076142132789330e-04	9.7855376080309292e-07	1	4.8197617367798443e-03	5.2790518344334026e-06	2	1.2551528222314349e-04	1.0015084376481399e-06	1	false	DILUPBiCGStab	5.6973550006421511e-04	4.9087097629928045e-07	2	true	DILUPBiCGStab	6.0921468133663299e-05	6.9828589702350575e-08	2	true	GAMG	2.9194487465778390e-02	2.7002966904700028e-04	10	true
11                      	DILUPBiCGStab	1.9144354167626519e-04	1.0226771106764390e-06	1	4.8619556407831221e-03	5.7742110028056084e-06	2	8.4047348270658803e-05	7.7883487683717809e-07	1	false	DILUPBiCGStab	4.9708776346881769e-04	4.1614529926707279e-07	2	true	DILUPBiCGStab	6.7586567959686822e-05	7.7345254464982221e-08	2	true	GAMG	3.6412335034624793e-02	3.5898594219801729e-04	10	true
12                      	DILUPBiCGStab	2.7450166292349601e-04	1.1090231659473440e-06	1	7.5507330813976738e-03	1.0848741544469909e-05	2	1.3053985170046619e-04	8.8239049659088280e-08	2	false	DILUPBiCGStab	4.4304422705209118e-04	3.4660028009839892e-07	2	true	DILUPBiCGStab	7.5999828652799985e-05	8.6224754726653975e-08	2	true	GAMG	5.4266424553575790e-02	5.1664148743938440e-04	9	true
13                      	DILUPBiCGStab	2.8551434895609948e-04	1.2374014692836480e-06	1	7.9596622231272746e-03	1.2180162468557950e-05	2	1.4166779053212890e-04	9.1524609121858453e-08	2	false	DILUPBiCGStab	4.0698634735734013e-04	3.6631339261912191e-06	1	true	DILUPBiCGStab	8.5750619878178461e-05	9.7146985588981092e-08	2	true	GAMG	5.4113148074903042e-02	4.9811115042920000e-04	8	true
14                      	DILUPBiCGStab	2.2660214850152139e-04	1.2725258440456111e-06	1	5.4945320290092680e-03	6.6357660518176509e-06	2	1.0986560369334100e-04	8.2456887701621169e-08	2	false	DILUPBiCGStab	3.8685676474772140e-04	3.1065661723692371e-06	1	true	DILUPBiCGStab	9.8583644928852159e-05	9.8281935078751070e-07	1	true	GAMG	3.6034224846698333e-02	2.2428740603190671e-04	10	true
15                      	DILUPBiCGStab	1.4942842995209319e-04	1.1699627182559521e-06	1	2.8302755489941641e-03	2.7234421695133418e-06	2	6.4879871161161086e-05	6.1937903935459916e-07	1	false	DILUPBiCGStab	3.8209561094551910e-04	3.0385997029361700e-06	1	true	DILUPBiCGStab	1.1711460074904650e-04	1.1552105411708641e-06	1	true	GAMG	2.2578762914838901e-02	1.8914390969579741e-04	9	true
16                      	DILUPBiCGStab	1.1401851993357509e-04	1.0554331460473331e-06	1	2.1626661446697620e-03	5.8750274088534356e-06	2	4.6797532745972838e-05	3.9582458792904148e-07	1	false	DILUPBiCGStab	3.8661650622346012e-04	3.2026603294998742e-06	1	true	DILUPBiCGStab	1.4539005718028461e-04	1.4346609555161100e-06	1	true	GAMG	1.5317053058469860e-02	7.5006763198634817e-05	11	true
17                      	DILUPBiCGStab	1.5752152694932089e-04	9.3274716548574743e-07	1	2.1437758015405558e-03	5.7302513510222696e-06	2	5.3640519466823548e-05	5.0992084181021844e-07	1	false	DILUPBiCGStab	3.9481300062083009e-04	3.4064611458981669e-06	1	true	DILUPBiCGStab	1.9081886226985479e-04	1.8795086217428401e-06	1	true	GAMG	1.3147680827164870e-02	8.0442634586309173e-05	9	true
18                      	DILUPBiCGStab	1.8810110197781650e-04	6.9887631822424144e-07	1	1.7257532364766230e-03	3.8805354170180896e-06	2	5.3814276685584353e-05	5.2774302369407303e-07	1	false	DILUPBiCGStab	4.0963637428403042e-04	3.5792862368929868e-06	1	true	DILUPBiCGStab	2.7007635236395839e-04	2.6256208848852670e-06	1	true	GAMG	1.6219061581635372e-02	1.3650069241173519e-04	8	true
19                      	DILUPBiCGStab	1.7410855291392959e-04	5.7348093483138504e-07	1	1.1596281532566389e-03	1.7400714681893359e-06	2	4.1358768583918032e-05	3.8176643331750272e-07	1	false	DILUPBiCGStab	4.4696054600072048e-04	3.7666898835302639e-06	1	true	DILUPBiCGStab	4.3591946336567179e-04	4.1293188609230150e-06	1	true	GAMG	1.9478464991943920e-02	1.9054479889596881e-04	8	true
20                      	DILUPBiCGStab	1.3254055578378521e-04	4.6825799506270428e-07	1	8.9054631596934984e-04	6.8460349131130413e-07	2	2.9693219937817221e-05	2.3853881630274833e-07	1	false	DILUPBiCGStab	5.1875762262131855e-04	4.0806827250601424e-06	1	true	DILUPBiCGStab	1.0123392227638010e-03	9.2335375442577797e-06	1	true	GAMG	2.1187850807524129e-02	1.0856603290705190e-04	11	true
21                      	DILUPBiCGStab	8.8812535748792378e-05	3.6720971212484448e-07	1	9.8349161562598527e-04	9.5747173713200857e-06	1	2.9737166423566321e-05	2.2453032134458421e-07	1	false	DILUPBiCGStab	6.0546150841841746e-04	4.5229255029658148e-06	1	true	DILUPBiCGStab	3.6143488463130460e-03	3.1751878064058273e-05	1	true	GAMG	2.1010028239645841e-02	1.1173484131166610e-04	9	true
22                      	DILUPBiCGStab	7.6013862613616258e-05	4.9223080516716604e-07	1	1.1038895362054191e-03	1.4117865685157100e-08	3	3.3495942589391627e-05	2.7499097375536459e-07	1	false	DILUPBiCGStab	7.1184835392389904e-04	5.3146087984523383e-06	1	true	DILUPBiCGStab	7.0906907799702496e-04	6.0191472107068893e-06	1	true	GAMG	1.9182358359152881e-02	1.6662509689726010e-04	8	true
23                      	DILUPBiCGStab	1.1383796408426910e-04	5.6196587135517018e-07	1	1.0111336928864769e-03	5.6084532722465193e-06	2	3.2896655527708421e-05	2.9887440656988893e-07	1	false	DILUPBiCGStab	8.6005565816827723e-04	6.7429714744833730e-06	1	true	DILUPBiCGStab	4.0147747833002377e-04	3.3572141155040268e-06	1	true	GAMG	1.6449847845045811e-02	1.1237862000347650e-04	9	true
24                      	DILUPBiCGStab	1.3029960394017311e-04	4.8458998835922168e-07	1	8.4835850260484274e-04	2.0226429297896508e-06	2	2.8867697905569531e-05	2.6287829370893019e-07	1	false	DILUPBiCGStab	1.1009523310578509e-03	9.2600193800828939e-06	1	true	DILUPBiCGStab	2.8100332435465343e-04	2.3633886845852779e-06	1	true	GAMG	1.3909079361827770e-02	1.2459382704646811e-04	8	true
25                      	DILUPBiCGStab	1.1546806726713540e-04	3.8141583714126638e-07	1	7.5719522777535034e-04	7.3661077490972332e-07	2	2.5152459475098461e-05	2.0428622629542861e-07	1	false	DILUPBiCGStab	1.5687675564520121e-03	1.4172607857654340e-05	1	true	DILUPBiCGStab	2.1712624051343241e-04	1.8648613193004719e-06	1	true	GAMG	1.1297571629805910e-02	8.2591037146456154e-05	9	true
26                      	DILUPBiCGStab	8.5562881759853072e-05	2.7033090754697012e-07	1	7.0430373366953938e-04	4.9781369959155464e-06	1	2.2843115279233050e-05	1.7634196618205651e-07	1	false	DILUPBiCGStab	2.8438236878735269e-03	2.7568103780932871e-05	1	true	DILUPBiCGStab	1.7772795347180531e-04	1.5743769978845290e-06	1	true	GAMG	9.9981466585368009e-03	5.3791425849542323e-05	10	true
27                      	DILUPBiCGStab	6.2594883767739374e-05	3.1783114617937951e-07	1	6.3687442447767474e-04	4.7904053922446087e-06	1	2.1233740216077999e-05	1.7375578227820701e-07	1	false	DILUPBiCGStab	1.4218977225451790e-02	2.9621304590612819e-05	2	true	DILUPBiCGStab	1.5171087807976699e-04	1.3960619994122329e-06	1	true	GAMG	9.6734930994296885e-03	7.2673478977330563e-05	8	true
28                      	DILUPBiCGStab	7.4085176267876590e-05	4.3591963928282379e-07	1	5.2072373566277132e-04	4.7601212773223523e-06	1	1.8831251790823461e-05	1.6948763033009001e-07	1	false	DILUPBiCGStab	4.0553281567441814e-03	6.9671186716606241e-06	2	true	DILUPBiCGStab	1.3350018198265501e-04	1.2789745011858080e-06	1	true	GAMG	9.6026008829118003e-03	4.5427766481637258e-05	10	true
29                      	DILUPBiCGStab	9.3349192353219036e-05	3.8816094803186051e-07	1	4.5711268181536488e-04	3.2807163136355000e-06	2	1.6425553144985531e-05	1.6048497120816149e-07	1	false	DILUPBiCGStab	1.9018227709921530e-03	3.6218952746577300e-06	2	true	DILUPBiCGStab	1.2017583301198089e-04	1.1978157675274890e-06	1	true	GAMG	9.5984400077374250e-03	7.4855759171910233e-05	9	true
30                      	DILUPBiCGStab	8.9033830385379110e-05	2.9792956791807999e-07	1	4.6285204036186829e-04	4.3700414289598938e-06	1	1.5477837380611071e-05	1.5138985400759080e-07	1	false	DILUPBiCGStab	1.2592355533751591e-03	3.0941913433296851e-06	2	true	DILUPBiCGStab	1.1013978537714329e-04	1.1750087346595230e-07	2	true	GAMG	9.3654759759858840e-03	8.8061483369069349e-05	8	true
31                      	DILUPBiCGStab	6.9267467230441239e-05	2.1226974152815500e-07	1	4.7767475679494619e-04	3.1223437903390380e-06	1	1.5829637477092689e-05	1.4444511963171699e-07	1	false	DILUPBiCGStab	9.9021096967909293e-04	3.2524572375272399e-06	2	true	DILUPBiCGStab	1.0217574702765350e-04	1.1595745070976691e-07	2	true	GAMG	9.1080661376643605e-03	8.0574467582722735e-05	8	true
32                      	DILUPBiCGStab	4.6591330076796917e-05	1.7624383748180109e-07	1	4.7961127354138769e-04	2.7767180539893800e-06	1	1.6437664500897950e-05	1.4426958343250839e-07	1	false	DILUPBiCGStab	8.2971365844636204e-04	3.6220064445757790e-06	2	true	DILUPBiCGStab	9.5656656097001076e-05	1.1238918149540430e-07	2	true	GAMG	8.7088824007036016e-03	5.2723173783892058e-05	9	true
33                      	DILUPBiCGStab	3.9010335382650960e-05	3.1508069567460861e-07	1	4.7353480324291832e-04	2.8842963142241800e-06	1	1.6714961493182330e-05	1.5076939631851311e-07	1	false	DILUPBiCGStab	7.1158957390248336e-04	4.0366624043096018e-06	2	true	DILUPBiCGStab	9.0143446275922433e-05	1.0636964296343600e-07	2	true	GAMG	7.4954983326331508e-03	4.5446686265652817e-05	8	true
34                      	DILUPBiCGStab	5.7817372636909162e-05	3.8349124762509562e-07	1	4.9511166857952931e-04	3.7240143486005860e-06	1	1.6490438010794481e-05	1.5672902585903671e-07	1	false	DILUPBiCGStab	6.1482255346795951e-04	4.4484842096241282e-06	2	true	DILUPBiCGStab	8.5375171262169053e-05	9.6829545627753023e-08	2	true	GAMG	6.0885907624254089e-03	3.8531136979074033e-05	10	true
35                      	DILUPBiCGStab	6.4664136235580640e-05	3.2327274057808521e-07	1	4.9720276128450839e-04	3.9910527988611630e-06	1	1.5852384676969999e-05	1.5652297492557579e-07	1	false	DILUPBiCGStab	5.3353008047857839e-04	4.7359026671306763e-06	2	true	DILUPBiCGStab	8.1186429674541381e-05	8.2599315248588449e-08	2	true	GAMG	5.2279541065433184e-03	3.7533037934767809e-05	9	true
36                      	DILUPBiCGStab	5.6098328256771981e-05	2.5084539700003121e-07	1	4.6587135467280379e-04	3.3546066203871918e-06	1	1.4828250230967580e-05	3.8332243623503067e-08	2	false	DILUPBiCGStab	4.6764758424720331e-04	4.4737702314583172e-06	1	true	DILUPBiCGStab	7.7506488972310504e-05	7.1969071062363813e-08	2	true	GAMG	5.0189490413194496e-03	2.5274497216456751e-05	8	true
37                      	DILUPBiCGStab	4.1225267596746891e-05	2.1540162025295841e-07	1	4.1520894370615697e-04	2.6519695960566508e-06	1	1.3663909169354610e-05	1.2820778718233509e-07	2	false	DILUPBiCGStab	4.1868086238924839e-04	3.7636503430942070e-06	1	true	DILUPBiCGStab	7.4253280710054141e-05	8.7669138745018562e-08	2	true	GAMG	5.0616248732940810e-03	3.9295492638783780e-05	9	true
38                      	DILUPBiCGStab	3.2380463739035188e-05	2.9847710712225899e-07	1	3.7891631684783289e-04	2.3251147680187268e-06	1	1.2670842765065160e-05	9.4089406560528030e-08	2	false	DILUPBiCGStab	3.8838076695391131e-04	3.1716958964988130e-06	1	true	DILUPBiCGStab	7.1400190552774705e-05	1.2661583916452879e-07	2	true	GAMG	4.9570725570841643e-03	3.1797569543415950e-05	9	true
39                      	DILUPBiCGStab	4.2346902848385230e-05	3.5962700796748410e-07	1	3.8089143523081011e-04	2.5905396791563090e-06	1	1.2127103581327840e-05	9.1407678490874443e-08	2	false	DILUPBiCGStab	3.5918082471803980e-04	2.6749766725551300e-06	1	true	DILUPBiCGStab	6.8864655481242699e-05	1.8466350716531119e-07	2	true	GAMG	4.6415877344336900e-03	2.5447697982421991e-05	9	true
40                      	DILUPBiCGStab	4.8709951394080702e-05	3.1094885565731280e-07	1	3.9312349612734640e-04	2.9423796609794991e-06	1	1.2086719250359179e-05	9.0446821564558883e-08	2	false	DILUPBiCGStab	3.3534282725633318e-04	2.3325650543519240e-06	1	true	DILUPBiCGStab	6.6623338175768356e-05	2.4333340210785572e-07	2	true	GAMG	4.4326446104161147e-03	2.9055665292383581e-05	9	true
41                      	DILUPBiCGStab	4.3104219910803962e-05	2.3847403545617289e-07	1	4.0202562791664541e-04	2.8541496318184681e-06	1	1.2359106815918930e-05	8.0110429902078656e-08	2	false	DILUPBiCGStab	3.2456043408528708e-04	2.1593597703657420e-06	1	true	DILUPBiCGStab	6.4627863826507547e-05	2.8722592603842962e-07	2	true	GAMG	4.2317877662175303e-03	3.4361556788287261e-05	8	true
42                      	DILUPBiCGStab	3.1758407376961052e-05	1.8628296959968521e-07	1	4.1115081764025692e-04	2.6155398531142400e-06	1	1.2642335269465019e-05	6.6636637528440810e-08	2	false	DILUPBiCGStab	3.1864184954343971e-04	2.1150639109705732e-06	1	true	DILUPBiCGStab	6.2853576276074863e-05	2.9132331161230210e-07	2	true	GAMG	3.9449480364666242e-03	2.9696956516057310e-05	9	true
43                      	DILUPBiCGStab	2.1713895624813540e-05	1.9173384392819239e-07	1	4.2713462965314919e-04	2.5937661437418490e-06	1	1.2723781171352620e-05	5.6224590149962648e-08	2	false	DILUPBiCGStab	3.1037382379697792e-04	2.1210683779335060e-06	1	true	DILUPBiCGStab	6.1258585972229562e-05	2.9058675118285628e-07	2	true	GAMG	3.6872084704034371e-03	2.0585050367866179e-05	9	true
44                      	DILUPBiCGStab	2.2852382128430519e-05	7.0391954463811093e-08	2	4.3407612472577998e-04	2.7535262249546428e-06	1	1.2545776615575420e-05	4.9131967828161998e-08	2	false	DILUPBiCGStab	2.9869243275187392e-04	2.1448740980664038e-06	1	true	DILUPBiCGStab	5.9833260831741901e-05	2.7840115340629529e-07	2	true	GAMG	3.3108037969164150e-03	1.7919337573895861e-05	9	true
45                      	DILUPBiCGStab	3.1261107369617752e-05	2.3934764103471501e-07	1	4.2250633332871430e-04	2.8769519360300890e-06	1	1.2146039519297919e-05	4.3555079266900112e-08	2	false	DILUPBiCGStab	2.8447709332971759e-04	2.1613260807797880e-06	1	true	DILUPBiCGStab	5.8534553811540842e-05	2.5297700628509310e-07	2	true	GAMG	3.0353341560147400e-03	2.6747410150355482e-05	8	true
46                      	DILUPBiCGStab	3.1287174498252220e-05	1.9156223718339520e-07	1	3.9868045426339529e-04	2.8229591215040890e-06	1	1.1615480093447090e-05	1.1360026010603849e-07	1	false	DILUPBiCGStab	2.6960723253384152e-04	2.1838399615186850e-06	1	true	DILUPBiCGStab	5.7361915078396340e-05	2.2017692771788980e-07	2	true	GAMG	2.8276401086734151e-03	2.1507871980922319e-05	8	true
47                      	DILUPBiCGStab	2.5688702903308389e-05	1.4356985736131510e-07	1	3.7645906720439591e-04	2.5912165212992770e-06	1	1.1093010035156180e-05	1.0521858790437810e-07	1	false	DILUPBiCGStab	2.5618486496715352e-04	2.1940987523758950e-06	1	true	DILUPBiCGStab	5.6293080926586638e-05	1.7986226316789760e-07	2	true	GAMG	2.6670598511823441e-03	1.6392344910624501e-05	9	true
48                      	DILUPBiCGStab	1.9753265648656629e-05	1.4612039542976209e-07	1	3.6658023150441062e-04	2.3707942360462172e-06	1	1.0735125727808151e-05	9.7961261041261443e-08	1	false	DILUPBiCGStab	2.4544153003284731e-04	2.1812935924691570e-06	1	true	DILUPBiCGStab	5.5331522407131798e-05	1.3916504334170221e-07	2	true	GAMG	2.6946772219113161e-03	1.1985732502939591e-05	9	true
49                      	DILUPBiCGStab	2.0189758624704159e-05	1.6243162918104081e-07	1	3.6694594737740968e-04	2.3010780395261120e-06	1	1.0611882732461429e-05	9.2822773636077678e-08	1	false	DILUPBiCGStab	2.3849496703589801e-04	2.1445645335666351e-06	1	true	DILUPBiCGStab	5.4458898144490542e-05	1.0263426029595080e-07	2	true	GAMG	2.6576125959588458e-03	1.2079805047248090e-05	9	true
50                      	DILUPBiCGStab	2.5822493056724170e-05	1.6634529656998770e-07	1	3.7195898272597138e-04	2.3580166057932969e-06	1	1.0660580834233571e-05	8.9255007391215851e-08	1	false	DILUPBiCGStab	2.3380374700546010e-04	2.0791118352229839e-06	1	true	DILUPBiCGStab	5.3671952384344540e-05	7.4187632331611788e-08	2	true	GAMG	2.5350347794047680e-03	2.2894799727608339e-05	8	true
51                      	DILUPBiCGStab	2.5640168724640089e-05	1.3572575790142210e-07	1	3.7699076801397193e-04	2.4136102921756078e-06	1	1.0754566658073391e-05	8.6370192937968386e-08	1	false	DILUPBiCGStab	2.3249224357626080e-04	1.9927600009577998e-06	1	true	DILUPBiCGStab	5.2944333744802431e-05	5.4165711410490041e-08	2	true	GAMG	2.3105987336182552e-03	1.3598811976543190e-05	8	true
52                      	DILUPBiCGStab	2.0578410046878402e-05	9.8745452968844716e-08	1	3.8159739717946983e-04	2.4024457163783801e-06	1	1.0788149207680761e-05	8.3310233510858045e-08	1	false	DILUPBiCGStab	2.3252434525909040e-04	1.8749191377937570e-06	1	true	DILUPBiCGStab	5.2275461554090110e-05	5.1450608041816369e-07	1	true	GAMG	2.0923342656205489e-03	1.2551485177502800e-05	9	true
53                      	DILUPBiCGStab	1.4651525707823010e-05	7.4642590263708115e-08	1	3.8224398049487750e-04	2.3020607353522420e-06	1	1.0718348983063640e-05	7.9730555266319283e-08	1	false	DILUPBiCGStab	2.3186024050840320e-04	1.7245754990613179e-06	1	true	DILUPBiCGStab	5.1639116906992860e-05	4.9468879391329920e-07	1	true	GAMG	2.0975455099042240e-03	9.9803084055390262e-06	9	true
54                      	DILUPBiCGStab	1.1863899434653690e-05	7.8592654138917000e-08	1	3.7620939576989051e-04	2.1481304181387180e-06	1	1.0542607547376930e-05	7.5654471545680103e-08	1	false	DILUPBiCGStab	2.2968166625011641e-04	1.5521994907326920e-06	1	true	DILUPBiCGStab	5.1036311297070611e-05	4.7527177167288330e-07	1	true	GAMG	2.0618968202778202e-03	8.6972587085789465e-06	9	true
55                      	DILUPBiCGStab	1.5331190164878391e-05	8.5499731403920123e-08	1	3.6515735020268089e-04	1.9974623689321261e-06	1	1.0295497018036330e-05	7.1429423650025680e-08	1	false	DILUPBiCGStab	2.2602400076434951e-04	1.3749267565100049e-06	1	true	DILUPBiCGStab	5.0435389711808072e-05	4.5640985765314330e-07	1	true	GAMG	1.9470938171669591e-03	1.4124342547057680e-05	7	true
56                      	DILUPBiCGStab	1.7067638302667220e-05	7.4954013658164232e-08	1	3.5362711039812328e-04	1.8778882786705880e-06	1	1.0040571054613119e-05	6.7431066962488903e-08	1	false	DILUPBiCGStab	2.2149002024295211e-04	1.2126286390296361e-06	1	true	DILUPBiCGStab	4.9852415897419940e-05	4.3826687421133409e-07	1	true	GAMG	1.7772100607488959e-03	9.6598666831250085e-06	9	true
57                      	DILUPBiCGStab	1.5654465802867509e-05	5.6370733831309713e-08	1	3.4651951497420683e-04	1.8228474174023300e-06	1	9.8445479706518584e-06	6.4095029285210279e-08	1	false	DILUPBiCGStab	2.1692452242077839e-04	1.0757712733229320e-06	1	true	DILUPBiCGStab	4.9249945024317781e-05	4.2069755057816379e-07	1	true	GAMG	1.6338697427580450e-03	1.4152672091668559e-05	7	true
58                      	DILUPBiCGStab	1.3205530128256439e-05	5.7081258544425142e-08	1	3.4517804739562011e-04	1.7975986518189280e-06	1	9.7369525809900024e-06	6.1580584193581043e-08	1	false	DILUPBiCGStab	2.1303721899607319e-04	9.6443695447569268e-07	1	true	DILUPBiCGStab	4.8648839361140718e-05	4.0378239334763898e-07	1	true	GAMG	1.6649467235500810e-03	8.5946237615044902e-06	9	true
59                      	DILUPBiCGStab	1.2605934677239340e-05	6.2288861201366223e-08	1	3.4697672383590878e-04	1.7687038780550650e-06	1	9.7057389752679891e-06	5.9640986911859714e-08	1	false	DILUPBiCGStab	2.1030481889959410e-04	8.7876737453024599e-07	1	true	DILUPBiCGStab	4.8016902820112231e-05	3.8693713326310889e-07	1	true	GAMG	1.6933503465450790e-03	1.4645695927194610e-05	7	true
60                      	DILUPBiCGStab	1.5260862056043289e-05	6.3709557429173992e-08	1	3.5024959297739609e-04	1.7493118758209680e-06	1	9.7105718299139613e-06	5.8017205832955357e-08	1	false	DILUPBiCGStab	2.0898017769275021e-04	8.1779516100923610e-07	1	true	DILUPBiCGStab	4.7370848100010822e-05	3.7043102088475658e-07	1	true	GAMG	1.6342763742520380e-03	9.8408233578835771e-06	8	true
61                      	DILUPBiCGStab	1.6039503326919558e-05	5.5875969067951170e-08	1	3.5350797666260282e-04	1.7341661660976741e-06	1	9.7061430115122512e-06	5.6466488436406602e-08	1	false	DILUPBiCGStab	2.0893200200905660e-04	7.7191434052992372e-07	1	true	DILUPBiCGStab	4.6681260332966307e-05	3.5437460746881082e-07	1	true	GAMG	1.5084327831028129e-03	1.1356941334478920e-05	7	true
62                      	DILUPBiCGStab	1.4405640445446110e-05	4.3709049985135677e-08	1	3.5550189629930711e-04	1.7011547659854920e-06	1	9.6620055319629526e-06	5.4822758878108041e-08	1	false	DILUPBiCGStab	2.0954296274043190e-04	7.3682385893745543e-07	1	true	DILUPBiCGStab	4.5972252795805827e-05	3.3892489340822439e-07	1	true	GAMG	1.3945334330957989e-03	7.9008259593668505e-06	8	true
63                      	DILUPBiCGStab	1.1344922654529989e-05	3.2380467033197077e-08	1	3.5491538558800632e-04	1.6434583178861410e-06	1	9.5706962164124326e-06	5.3020662583703090e-08	1	false	DILUPBiCGStab	2.1005087559691551e-04	7.0866190479050119e-07	1	true	DILUPBiCGStab	4.5216058732959287e-05	3.2411802341374012e-07	1	true	GAMG	1.4116614328430631e-03	1.1634035513359030e-05	7	true
64                      	DILUPBiCGStab	8.7471973547250316e-06	3.0842469713702973e-08	1	3.5226577608338152e-04	1.5792958096093320e-06	1	9.4455817292654025e-06	5.1117039535592759e-08	1	false	DILUPBiCGStab	2.0994001908165830e-04	6.8496595161401636e-07	1	true	DILUPBiCGStab	4.4439422066571423e-05	3.1019761721179233e-07	1	true	GAMG	1.4363699553627620e-03	1.3171080879125630e-05	6	true
65                      	DILUPBiCGStab	9.0111178406015911e-06	3.1743372870658219e-08	1	3.4933755332010460e-04	1.5251982267686639e-06	1	9.3125003026442158e-06	4.9265467918821747e-08	1	false	DILUPBiCGStab	2.0904418682125760e-04	6.6584757795111100e-07	1	true	DILUPBiCGStab	4.3626727657215412e-05	2.9728086815894938e-07	1	true	GAMG	1.3903822022145790e-03	7.6417432874825835e-06	8	true
66                      	DILUPBiCGStab	1.0396040548980499e-05	2.8623437485539480e-08	1	3.4783969645049809e-04	1.4884153004395309e-06	1	9.1955426397046252e-06	4.7613926988149789e-08	1	false	DILUPBiCGStab	2.0754599821344789e-04	6.5053349012111830e-07	1	true	DILUPBiCGStab	4.2806734133516927e-05	2.8554237160965342e-07	1	true	GAMG	1.3046993104941010e-03	1.1224752022385180e-05	7	true
67                      	DILUPBiCGStab	1.0374180309998721e-05	2.7198718905548971e-08	1	3.4856085877042742e-04	1.4680681068515880e-06	1	9.1122029787060259e-06	4.6260389602238143e-08	1	false	DILUPBiCGStab	2.0579007387321261e-04	6.3673980257522224e-07	1	true	DILUPBiCGStab	4.1969789057838482e-05	2.7513550538104800e-07	1	true	GAMG	1.2297530378304711e-03	7.6289001511903471e-06	8	true
68                      	DILUPBiCGStab	9.7076962861113473e-06	3.1036474619467077e-08	1	3.5102841973618751e-04	1.4590561820032031e-06	1	9.0613300530020613e-06	4.5209613684107032e-08	1	false	DILUPBiCGStab	2.0412237075897259e-04	6.2502638689699217e-07	1	true	DILUPBiCGStab	4.1145275715787197e-05	2.6594739527374241e-07	1	true	GAMG	1.2406078342436799e-03	6.0963170814807496e-06	8	true
69                      	DILUPBiCGStab	9.6032374041901576e-06	3.4524763212808002e-08	1	3.5431943311767591e-04	1.4545897248329210e-06	1	9.0308156454198148e-06	4.4437107734580721e-08	1	false	DILUPBiCGStab	2.0280745470787419e-04	6.1414292761936007e-07	1	true	DILUPBiCGStab	4.0327075394318232e-05	2.5777712836443808e-07	1	true	GAMG	1.2690345954910350e-03	6.0098379187830288e-06	8	true
70                      	DILUPBiCGStab	1.0806986653920350e-05	3.5574283141408583e-08	1	3.5773831431275651e-04	1.4480708803078829e-06	1	9.0037232990356912e-06	4.3859539807046387e-08	1	false	DILUPBiCGStab	2.0197719923558549e-04	6.0492061376952376e-07	1	true	DILUPBiCGStab	3.9540491367742709e-05	2.5051596967195260e-07	1	true	GAMG	1.2466272895485879e-03	1.1153976544036121e-05	6	true
71                      	DILUPBiCGStab	1.1371778846935250e-05	3.3853821861632558e-08	1	3.6049272767787869e-04	1.4355059150068559e-06	1	8.9655888701152014e-06	4.3316809890272502e-08	1	false	DILUPBiCGStab	2.0159576957762100e-04	5.9639245740540890e-07	1	true	DILUPBiCGStab	3.8778377376120330e-05	2.4414172291664091e-07	1	true	GAMG	1.1942293862425371e-03	1.1941683170724720e-05	6	true
72                      	DILUPBiCGStab	1.0900162002042500e-05	3.0338261065935153e-08	1	3.6212067849494898e-04	1.4128625764252680e-06	1	8.9092343597320084e-06	4.2738192844682282e-08	1	false	DILUPBiCGStab	2.0146645723660971e-04	5.8878792620727586e-07	1	true	DILUPBiCGStab	3.8058047484907818e-05	2.3868228152161399e-07	1	true	GAMG	1.1470325173107750e-03	5.8541931604493742e-06	7	true
73                      	DILUPBiCGStab	9.7195601785117056e-06	2.6641038078790491e-08	1	3.6251311339097349e-04	1.3861471261781689e-06	1	8.8364456003339767e-06	4.2139727767322410e-08	1	false	DILUPBiCGStab	2.0129427228279671e-04	5.8128546265900205e-07	1	true	DILUPBiCGStab	3.7374977986002273e-05	2.3386563786378910e-07	1	true	GAMG	1.1524938067994880e-03	6.8492140601343540e-06	8	true
74                      	DILUPBiCGStab	8.3570772146495486e-06	2.4268740239113719e-08	1	3.6234743342018251e-04	1.3642413639815310e-06	1	8.7570408752591484e-06	4.1570978699976012e-08	1	false	DILUPBiCGStab	2.0084915630140291e-04	5.7524431177894370e-07	1	true	DILUPBiCGStab	3.6742999687844002e-05	2.2964804763330891e-07	1	true	GAMG	1.1721138638621040e-03	6.0614597194007012e-06	8	true
75                      	DILUPBiCGStab	7.3920392498856908e-06	2.3490976572745042e-08	1	3.6232652053146732e-04	1.3513897186100040e-06	1	8.6814691666324956e-06	4.1105336253836198e-08	1	false	DILUPBiCGStab	2.0001829480393470e-04	5.6912017996529073e-07	1	true	DILUPBiCGStab	3.6154949459105663e-05	2.2600883734325461e-07	1	true	GAMG	1.1582495473609409e-03	5.7372871833542519e-06	7	true
76                      	DILUPBiCGStab	7.8306282429008219e-06	2.3903014148897791e-08	1	3.6287561664327070e-04	1.3464376390502121e-06	1	8.6173103043393347e-06	4.0800454191809347e-08	1	false	DILUPBiCGStab	1.9883977238133031e-04	5.6310263028801435e-07	1	true	DILUPBiCGStab	3.5618372958029142e-05	2.2294027747129671e-07	1	true	GAMG	1.1236108064954049e-03	6.6538336067783943e-06	7	true